/*--------------------------------*- C++ -*----------------------------------*\
| =========                 |                                                 |
| \\      /  F ield         | OpenFOAM: The Open Source CFD Toolbox           |
|  \\    /   O peration     | Version:  2.4.0-MNF                             |
|   \\  /    A nd           | Web:      www.OpenFOAM.org                      |
|    \\/     M anipulation  |                                                 |
\*---------------------------------------------------------------------------*/
FoamFile
{
    version     2.0;
    format      ascii;
    class       scalarField;
    location    "0.0008/lagrangian/dsmc";
    object      ERot;
}
// * * * * * * * * * * * * * * * * * * * * * * * * * * * * * * * * * * * * * //


64126
(
4.211219335e-21
1.082868238e-21
9.344563698e-22
1.781475363e-21
1.24080808e-21
6.228320457e-22
6.030957104e-21
4.675071986e-21
3.25982773e-21
2.297520972e-21
2.884821944e-21
6.997820683e-21
2.327783884e-21
3.340281881e-21
1.429355578e-20
2.01618764e-21
8.661184045e-21
3.924252083e-21
3.349666396e-21
4.343511885e-21
1.876423998e-20
2.374267025e-21
1.475667553e-20
4.018811268e-22
1.059612321e-21
2.503176885e-21
2.034296224e-21
1.932145045e-21
1.251761447e-21
1.07971833e-22
2.293500678e-21
2.315492869e-22
1.688611568e-21
9.389273012e-22
1.93362739e-20
9.546277499e-22
2.648244379e-21
3.008797159e-21
4.708992176e-21
1.406955938e-21
8.911626789e-22
3.989940939e-21
1.453396664e-21
1.630274004e-22
3.050741576e-21
4.424697802e-21
1.453416704e-22
1.148754048e-20
1.018361958e-21
1.021579288e-20
1.629813282e-22
4.122705876e-21
2.655038747e-21
5.141802027e-21
8.97747435e-21
3.56064939e-21
1.21807654e-20
1.983028581e-21
6.603330912e-22
3.888174834e-21
2.385607931e-21
1.127792894e-21
3.387542971e-21
6.742067637e-21
7.21156057e-23
2.204587389e-22
3.841081463e-21
7.013234404e-21
9.273504278e-21
4.674806956e-21
2.70809472e-21
1.475802003e-21
3.609910971e-21
3.076324353e-21
7.391216667e-21
9.795626971e-24
2.705677547e-21
3.108836481e-22
1.443452564e-21
9.610075328e-21
2.548563053e-21
1.018591735e-21
4.746615535e-21
1.93101827e-20
4.78684289e-21
9.812201429e-22
9.272788299e-21
2.19875517e-21
1.283466551e-21
6.183626384e-21
4.568094171e-21
1.117834329e-21
6.905968491e-21
3.055398656e-21
1.176074141e-21
4.135133615e-21
3.84056262e-21
3.644989703e-21
2.526220241e-21
2.9718976e-21
1.358786809e-20
2.40544991e-21
2.357942019e-22
7.749757724e-22
7.279987693e-21
3.718893816e-21
1.523986228e-21
1.664220804e-21
7.382981544e-22
3.258936856e-21
3.450719075e-21
1.166147401e-21
1.075957319e-20
4.174886883e-22
3.806300053e-21
1.218116981e-21
1.602528967e-21
9.296949158e-22
9.321310558e-21
3.274544463e-21
1.984872103e-21
4.65337668e-21
3.288275245e-21
1.324178117e-21
3.856442097e-21
4.446021198e-21
3.474595679e-23
8.783208044e-22
5.104334114e-21
5.882248878e-21
4.132481559e-21
2.212919238e-21
2.383068276e-21
1.505271816e-21
2.804052871e-22
1.249040919e-21
7.744653666e-21
4.126026693e-22
1.181293623e-21
5.261041639e-21
1.749272267e-22
1.940825912e-22
1.736088425e-23
1.362285811e-20
6.861154082e-21
4.796847291e-21
7.095320539e-21
7.590230118e-22
3.117576264e-21
3.885252346e-22
2.897042258e-21
7.826575378e-21
8.379398179e-21
2.883080766e-23
5.43298102e-22
2.435054357e-21
5.72462283e-21
5.37867374e-21
1.632716252e-21
1.363188553e-21
3.911438584e-22
1.106730532e-21
1.130493872e-21
8.927654636e-22
4.166065821e-21
8.151804113e-22
4.581629532e-21
3.192300054e-21
1.126393405e-21
1.67756936e-20
3.048422403e-21
8.213322683e-22
4.193451792e-21
2.105273981e-21
1.379266311e-21
3.662456465e-22
2.709319874e-21
1.019098654e-20
5.5564748e-21
1.078178648e-20
8.383141381e-22
4.103441347e-21
3.974051041e-21
2.347847919e-21
2.807218399e-21
5.477510907e-21
1.890076111e-21
4.225233782e-22
1.290638504e-21
5.888495291e-22
5.85989996e-21
3.994259364e-21
3.094554893e-21
1.83843458e-21
1.228701515e-21
3.844791716e-21
7.079840649e-22
4.624213199e-21
8.852757889e-21
6.661555337e-21
1.470224525e-21
9.207203186e-23
2.858642646e-21
2.483241791e-20
1.419868435e-20
4.744909142e-21
2.54808341e-21
6.293133967e-21
8.859741784e-21
7.778471368e-21
2.736017146e-21
2.509191276e-21
1.257407954e-22
2.266176358e-21
9.087430618e-22
2.094137729e-21
1.117050804e-22
3.361839548e-21
2.172350034e-21
4.222729467e-22
9.121292796e-21
9.197963793e-22
2.307156322e-21
1.311441344e-20
2.423400617e-22
2.468332504e-21
3.321767654e-21
7.731168483e-22
4.244259757e-21
1.569247188e-21
3.174919128e-21
2.278807854e-21
2.458563231e-21
3.141940357e-21
2.000827001e-21
5.320153855e-21
5.187705092e-21
2.438663525e-21
2.209254577e-21
5.366291576e-21
3.485231159e-22
5.724024456e-21
2.398401216e-21
1.913342922e-21
6.354880192e-21
2.746058558e-22
6.232198135e-22
4.663158068e-21
3.272147517e-21
1.974055968e-21
1.661544555e-22
5.354952934e-22
1.206517028e-20
2.330390442e-21
6.483875401e-22
8.043713209e-22
8.370487231e-23
2.704227315e-21
3.392151338e-21
3.593465327e-21
3.957798631e-21
3.36094564e-21
2.733653145e-22
2.779469917e-21
3.643176243e-21
5.953947916e-21
5.424775864e-21
4.757961051e-21
6.551010662e-21
1.048533961e-20
2.044939278e-21
6.88960501e-21
3.220989414e-22
3.700114723e-21
1.402553735e-21
7.437937195e-22
3.093708397e-22
9.647044638e-21
3.361057006e-21
3.252301325e-21
2.53250608e-21
6.70087814e-22
1.46179286e-21
1.64069342e-21
4.061921178e-21
9.709266794e-21
1.539063584e-21
9.086611262e-21
2.517611536e-21
1.329336894e-21
3.052737617e-21
6.855514554e-22
6.492736135e-21
1.953648244e-21
8.717302499e-22
1.579730239e-21
5.238323254e-21
6.191650031e-22
4.227502225e-22
3.383417167e-21
6.543524119e-22
5.005682088e-21
1.064250364e-21
3.132354704e-21
2.688476863e-21
4.033212993e-22
8.193595981e-21
1.796978379e-21
2.425772729e-22
1.868990453e-20
6.539344935e-21
2.395686206e-21
3.9095492e-21
7.568409244e-21
4.301806441e-21
3.48705349e-21
5.22182479e-21
6.832606344e-22
4.662786757e-21
7.816899303e-22
7.592616021e-21
2.139175112e-21
5.398511937e-21
3.25205941e-21
3.170693193e-21
2.727299967e-21
6.775950465e-21
1.011368435e-21
6.64475363e-22
8.623953875e-22
2.19191721e-21
4.905140845e-21
3.629184516e-21
2.931858786e-21
3.256026051e-21
3.679811988e-21
8.946846586e-22
7.994698784e-21
5.715446353e-21
8.686198419e-22
1.619748748e-21
1.793170879e-21
4.014125209e-21
1.119968508e-21
1.405360774e-20
3.428545966e-22
1.912209346e-23
7.225133671e-22
2.413499615e-21
1.134191936e-20
5.449518328e-22
1.019622892e-21
1.393301354e-21
7.579998028e-22
8.095845087e-21
7.919059459e-23
5.281817832e-22
2.57334507e-21
2.015977523e-20
1.40114308e-21
2.907518926e-21
1.587061968e-21
2.927576322e-21
3.188237219e-22
3.194748347e-22
3.507396521e-21
3.167388587e-22
4.526896927e-21
9.426265128e-21
1.90876714e-21
7.26796851e-21
5.232920824e-22
4.93155933e-21
1.087898821e-22
1.665909137e-21
5.591856755e-21
3.195754405e-21
4.530701976e-21
1.217900322e-20
2.937520495e-21
3.903554905e-21
8.186208446e-21
2.056278794e-21
1.416097289e-20
4.393269252e-21
3.799875167e-21
2.31358571e-21
5.336902386e-21
1.076003017e-20
7.334823671e-21
7.130528479e-21
3.008918005e-21
2.126645847e-21
9.009973852e-21
2.599555513e-21
6.517131728e-21
2.656798504e-21
2.389453209e-21
7.843632464e-21
3.638489866e-21
2.299542032e-22
3.182369712e-21
3.384235288e-22
6.191594742e-21
6.940693352e-22
2.86096378e-21
1.905166199e-21
4.859746301e-21
6.088046845e-21
1.40790944e-20
7.755429817e-21
2.273205147e-21
9.300966364e-22
1.10603054e-21
1.333725001e-20
3.635953721e-21
1.234798333e-20
2.956365941e-22
1.642843093e-21
3.212040186e-21
5.033756425e-21
1.607814984e-20
8.035557494e-22
4.700252251e-21
8.671880695e-21
8.098150155e-21
1.098307703e-22
3.898705155e-21
1.433840368e-20
4.867883924e-21
1.6285163e-21
1.618507543e-21
6.819023662e-21
2.269003807e-21
5.932109585e-21
6.477264625e-21
4.030229663e-21
7.013604555e-21
4.70499766e-21
1.191465764e-21
1.35174575e-21
2.517571793e-21
1.027393764e-21
3.490958151e-21
1.822687296e-21
3.186440394e-21
1.265157857e-21
4.724329787e-21
3.444051624e-21
2.227928912e-21
8.119610707e-21
1.614719849e-21
7.946226511e-22
1.60950907e-21
2.169562604e-22
2.327701343e-21
3.954622405e-22
7.430973085e-21
5.284573266e-22
5.524193223e-21
3.376442318e-21
4.713585855e-21
1.277835983e-21
4.692288825e-21
4.565412743e-21
3.481531604e-21
3.515443025e-21
9.475614776e-23
2.368272767e-21
3.30453283e-22
7.95503456e-22
1.736487379e-22
7.58030811e-22
3.066448035e-21
1.015728238e-21
6.521633034e-22
8.433626024e-21
3.291444864e-21
1.314239428e-22
5.403774234e-21
1.607568415e-21
4.762327537e-21
1.791963025e-21
3.317756337e-21
1.929493018e-20
2.019578609e-21
5.606062966e-22
8.122748652e-22
2.557068476e-22
1.433836512e-22
1.110275227e-20
4.793476104e-21
5.785358709e-22
1.085747855e-21
1.133458774e-21
1.42818329e-20
1.445568476e-21
4.98266273e-21
1.885312509e-21
1.256605814e-20
1.447834888e-22
2.268170577e-21
3.418300523e-21
4.278047125e-21
2.07071136e-21
1.94765743e-21
2.112860138e-21
3.291998003e-22
3.145009996e-21
7.033476896e-21
3.087161593e-22
2.027610147e-20
3.626660142e-21
5.202253638e-23
6.746508422e-21
8.046433361e-21
1.29506898e-20
5.896758898e-21
3.909058045e-22
6.729065636e-21
2.510199817e-21
4.42957237e-23
5.37581665e-21
2.070948198e-21
3.068462135e-21
2.884631733e-21
2.743607816e-21
6.055761861e-21
4.768265856e-22
8.736327211e-21
6.610136056e-21
1.170506809e-21
2.579136253e-21
1.49356636e-21
1.288908852e-21
8.842371866e-21
7.439430508e-21
6.438420633e-21
2.756894045e-21
2.931612787e-21
4.742367458e-21
5.016824508e-22
5.346681344e-22
1.487866782e-20
5.199030096e-21
8.810362265e-23
1.492319138e-20
2.908708962e-21
1.112946337e-21
1.554615624e-21
6.52349532e-21
3.78573547e-21
7.404810677e-22
1.691451367e-21
3.950156395e-21
3.407441589e-21
1.176202965e-21
6.989778988e-21
3.792144934e-21
4.363998382e-22
1.374945394e-20
1.68459335e-21
1.18485454e-21
1.176583375e-21
1.222936566e-20
1.91556113e-20
9.928025423e-22
5.204817049e-21
3.493197691e-21
7.26589484e-21
2.345593216e-21
2.92050797e-21
4.402279239e-22
3.658059328e-21
4.589528245e-21
3.721642612e-21
4.412764712e-22
2.08075484e-21
2.189963528e-22
8.693745686e-21
1.531235344e-22
1.145564514e-20
1.941688069e-21
2.734277084e-21
2.603522968e-21
1.333244046e-20
9.010445558e-21
2.126603488e-21
7.052305721e-21
2.846290054e-21
1.860946328e-21
1.775167269e-21
1.182109436e-21
6.304801442e-21
2.081637379e-21
1.781931093e-21
2.619199051e-21
1.281815435e-21
4.873505805e-23
1.63816844e-21
6.890907861e-21
6.32861407e-21
2.629207292e-21
2.02225853e-21
5.811855998e-21
1.017272028e-20
3.817345446e-21
6.407048849e-21
3.786163545e-21
3.581081116e-21
5.382255772e-22
1.460437675e-21
8.449567863e-22
3.799297824e-21
3.301822219e-21
7.593025021e-21
5.36978688e-22
4.267159131e-21
9.791676885e-21
2.743113988e-21
4.819197375e-21
3.837920101e-21
4.986189184e-21
7.90119868e-22
1.612541222e-21
4.228863424e-21
5.613550988e-21
3.175848435e-22
4.422424187e-21
8.684112515e-21
3.926965048e-21
7.562677911e-22
1.472628896e-21
1.503603613e-21
3.434729068e-21
2.458992342e-21
2.210284693e-21
2.212956322e-23
1.331798876e-21
6.146329777e-21
1.023569756e-20
7.289213973e-21
4.798072369e-21
7.601055158e-21
5.476549258e-21
6.684022051e-21
3.061208682e-22
1.166213821e-21
1.018738599e-21
2.550067122e-21
8.936089243e-21
6.097760921e-21
4.203449527e-21
2.962675586e-21
8.565596417e-22
1.676930942e-21
8.668091161e-22
6.011609691e-21
3.566159681e-21
7.462690292e-21
1.749049309e-21
8.683058941e-21
1.408894082e-21
2.713434032e-21
1.114795141e-20
2.358948354e-22
2.546931279e-21
1.165908629e-21
3.730031571e-22
3.917800143e-21
3.684598738e-21
1.552039636e-21
9.123606709e-22
7.283393622e-21
1.299188292e-21
1.700784215e-21
1.758864448e-21
3.139684937e-21
3.185579188e-21
3.838863231e-21
5.251500011e-21
6.927349639e-22
1.619298902e-20
7.167529806e-22
1.670836872e-21
1.346495431e-21
6.416713606e-21
7.196634793e-21
1.964181773e-21
2.003500939e-21
3.158763138e-22
1.330791178e-21
1.672503739e-20
3.510185174e-21
5.214132241e-21
1.411864593e-20
3.100969927e-22
7.119542092e-24
2.05013394e-20
5.213967951e-21
1.33796193e-20
1.017027811e-20
1.98320419e-21
1.535437304e-21
2.107868317e-21
5.890298917e-21
1.288582331e-20
7.106858129e-21
2.184559489e-20
2.608512651e-21
1.391052097e-21
1.404792951e-21
1.243972287e-21
4.36291898e-22
9.748401713e-22
5.756392773e-23
2.256147243e-20
4.976464191e-22
7.606832015e-21
2.630935594e-22
1.5299241e-21
5.930844286e-21
4.875485984e-21
2.542311007e-21
2.105359078e-21
3.549017936e-21
1.478998663e-20
4.165500883e-21
7.22197983e-21
5.732891857e-21
5.145487026e-21
4.190318161e-21
2.440762059e-21
1.002930401e-21
2.700601878e-21
2.798858634e-21
7.953988432e-21
3.091074209e-21
6.241404124e-22
3.45791823e-21
1.283979056e-21
1.000516032e-21
7.956555255e-21
6.64521656e-21
3.34249414e-21
2.63419583e-21
9.138339533e-22
3.469558743e-21
4.058307183e-21
7.069742096e-21
3.144527822e-21
4.192355118e-22
6.041290846e-21
3.450698073e-22
1.729062466e-22
5.99805427e-22
9.172369889e-22
7.967562913e-21
3.379518158e-21
8.48445201e-22
8.982697264e-21
4.610794486e-21
2.233721235e-21
4.494316562e-21
1.367460383e-20
1.531750817e-21
7.509170488e-22
1.927027066e-20
2.851298379e-21
9.674175584e-22
1.963922429e-21
3.630554528e-21
5.042988082e-21
5.157593782e-21
3.233276271e-21
1.88900601e-21
3.755918554e-21
8.885814034e-22
1.938994968e-21
1.926566736e-21
2.115741153e-21
2.450765728e-21
8.721765449e-22
1.092341525e-20
9.485269457e-22
8.340953911e-22
6.170568977e-21
1.42854766e-21
6.289102129e-22
1.807677508e-21
1.188755023e-22
7.015766491e-21
3.953839221e-22
3.032237132e-21
6.513760697e-21
1.835095129e-21
9.248836252e-22
1.495121747e-21
1.157602027e-22
8.903731702e-23
7.106811002e-21
1.896538374e-21
6.806495913e-21
1.289600263e-21
2.734567961e-21
6.614880951e-22
1.394754884e-20
4.363327011e-21
9.74115148e-21
7.192375126e-21
2.957118652e-21
2.799104195e-21
1.307274584e-21
9.961297914e-22
6.260869039e-21
3.490483493e-22
8.391515927e-21
9.961248479e-22
1.488817121e-21
2.281045576e-21
1.136874738e-21
2.120740436e-21
4.804561323e-21
2.992071633e-21
2.925342023e-21
9.727449261e-21
1.105149406e-23
1.934396051e-20
1.330857563e-21
1.586266168e-20
2.560621841e-21
1.105700174e-20
1.388365442e-22
2.185999413e-22
4.16328847e-21
1.203677421e-20
3.794676231e-21
1.594799215e-20
8.159457495e-21
4.276039572e-21
8.530806056e-22
7.235672649e-22
1.38481369e-22
9.587991833e-21
2.535247819e-21
4.537654045e-21
3.891799832e-21
4.226235019e-21
8.780758922e-21
2.92349663e-21
8.090210611e-22
1.280552501e-21
2.649043632e-22
1.53453276e-21
3.98135183e-21
7.924027086e-21
1.571802807e-21
1.168790525e-21
7.078451858e-21
7.787416363e-21
2.28815946e-21
3.073156775e-21
3.230660292e-22
3.224408762e-21
1.35400689e-20
1.209670072e-21
2.813593576e-21
1.267284969e-21
5.997587143e-21
1.928455943e-21
1.174006772e-20
2.585923389e-21
8.581026639e-21
2.768530214e-21
5.723070438e-21
1.32500158e-21
2.891359753e-21
5.456964091e-21
6.844047147e-21
2.865035616e-21
6.561577868e-22
1.27783434e-21
3.377706321e-22
6.806183174e-21
1.252491606e-20
7.081535585e-22
7.231012552e-21
2.985756838e-21
3.428806637e-21
6.246012529e-21
2.568970104e-21
1.275197268e-20
1.668981755e-21
7.843654291e-22
8.966066415e-21
1.490221454e-21
3.842818081e-22
2.683643655e-21
1.177271297e-20
5.969182424e-22
4.204353544e-21
2.506568161e-21
8.655718971e-22
1.675963388e-21
2.968527341e-21
1.096223299e-21
3.830402187e-21
6.609137978e-22
1.603383857e-21
6.808170845e-21
6.096857606e-22
2.38572787e-21
1.371063545e-21
4.525153132e-21
1.471011904e-22
5.058316751e-21
8.242787176e-21
2.650404538e-22
1.206199068e-20
2.587877515e-21
1.890069038e-21
8.771850385e-22
7.590042146e-21
1.262240602e-20
1.757594927e-21
6.940990599e-21
4.386898654e-21
3.350509271e-21
1.092751592e-20
1.06106754e-21
9.808712891e-21
9.511523551e-21
3.656874727e-21
8.368901673e-22
6.608181071e-21
1.343055259e-22
7.781577229e-23
5.70538817e-22
2.183381063e-21
1.601893899e-21
5.694373432e-21
7.78316567e-21
3.273308828e-21
2.31487134e-21
1.420904263e-22
9.586702172e-21
1.169350419e-20
3.12814752e-21
9.896652683e-21
3.355540934e-21
6.583866073e-21
3.262032439e-22
5.016250743e-21
5.528501024e-21
2.115389769e-21
4.312974447e-21
1.799262327e-21
6.548061133e-21
1.807067406e-21
8.212454842e-22
3.673279916e-22
9.652779906e-21
1.635036468e-21
1.854985969e-21
1.480597891e-23
5.436048553e-21
6.569091046e-22
1.786135113e-21
1.553999521e-20
3.497761159e-21
1.103788882e-20
2.535084572e-21
1.462522291e-20
4.570261246e-21
2.620271372e-21
5.692103743e-21
6.19987063e-21
4.89870534e-21
1.759134282e-22
5.941061038e-21
2.290778614e-22
2.793637678e-22
1.827084081e-21
8.291427882e-23
1.275670385e-20
3.249069346e-21
2.740022623e-21
2.104323745e-21
1.869022833e-21
9.282075205e-22
5.095528752e-21
2.560803068e-21
2.027881911e-21
1.032851857e-20
7.512299475e-21
9.402773863e-21
4.434121269e-21
1.12368357e-20
1.582724967e-20
1.743846814e-21
2.993195912e-21
1.12307302e-20
1.67716298e-21
1.127393512e-21
2.090366651e-21
4.126167e-21
1.646410888e-22
1.394981911e-20
7.765588837e-21
2.121856098e-21
2.854993382e-21
9.551234742e-22
1.15209756e-20
4.946639027e-21
3.367373242e-21
4.236315158e-21
1.663327915e-20
1.773354279e-21
5.650890909e-21
5.958333908e-21
5.239018609e-22
7.527974448e-21
4.392286459e-21
1.633088937e-21
6.307219439e-22
5.776864169e-21
6.433125493e-21
7.403347853e-21
5.240343611e-21
3.265022055e-21
8.64228056e-23
1.643357233e-21
1.51446716e-21
1.806602333e-21
1.477142585e-22
6.254051122e-21
6.292348317e-21
5.094459058e-21
2.032874695e-21
2.187109943e-21
4.639463278e-21
1.260222065e-20
3.554957946e-21
1.377983934e-20
3.713672088e-21
4.054638337e-21
2.386304358e-21
3.565094541e-23
7.775451881e-21
1.822323628e-21
1.601696272e-20
1.003971547e-22
3.428095899e-22
5.02622954e-21
3.856784625e-21
2.18870186e-22
4.097214691e-21
4.958985767e-21
1.97751462e-21
4.342690862e-21
1.097503258e-21
6.794750848e-21
8.534503688e-22
1.458500994e-21
1.107295528e-21
9.878239334e-21
1.0201354e-21
1.040949704e-21
4.804920258e-21
4.17323494e-21
6.527310219e-21
2.018776053e-21
9.197909675e-22
2.430830681e-22
5.229872771e-21
1.644072291e-22
7.777238068e-21
3.733485761e-22
1.032924718e-20
6.508779066e-21
8.814611116e-22
5.027041872e-21
2.550532864e-20
1.039818003e-22
7.115039399e-22
6.194701531e-22
6.842515779e-21
7.30417711e-21
1.104591596e-21
4.327362675e-21
1.283765687e-21
5.880563238e-22
4.989680984e-21
3.969337502e-21
3.224409492e-21
1.069316495e-21
5.071794506e-21
2.693250305e-21
3.522564217e-21
1.640724174e-22
3.656450965e-22
1.396259722e-21
2.376569384e-21
8.071176086e-21
1.329384001e-20
6.07459667e-21
1.643227642e-21
1.401637158e-20
8.911453275e-21
8.603301326e-21
3.546676945e-21
6.425565285e-21
2.413828296e-21
1.540941775e-21
1.853151691e-21
3.922753585e-21
4.27812727e-24
5.500770957e-22
5.769171005e-21
3.472293813e-21
4.478636881e-21
8.224326687e-21
6.558787303e-21
6.183596226e-22
7.168212276e-21
1.239421401e-20
2.772992533e-22
1.529229394e-21
9.937849736e-21
3.960143693e-22
4.196252449e-21
1.80380576e-21
1.383313548e-20
8.827639534e-22
1.876081381e-21
9.265401037e-21
3.829879172e-21
1.9221965e-21
2.021358891e-21
9.512524489e-21
7.920555178e-22
6.947262757e-22
4.867316105e-21
6.593829793e-21
8.978818446e-21
1.911596151e-21
7.97689914e-21
3.177558044e-21
1.011711407e-21
7.340548412e-21
2.523613564e-21
1.275209209e-20
1.067102612e-20
4.403493764e-21
7.809807505e-22
4.033009659e-22
5.372959999e-22
1.939537427e-24
5.555378833e-21
2.006652972e-21
1.925159782e-21
2.680831751e-21
2.989983535e-21
7.067848011e-21
1.005751528e-21
9.219885938e-21
5.369615589e-24
2.239707174e-21
2.344093082e-22
6.65693851e-21
2.468867176e-21
1.894645709e-21
1.269840766e-21
1.005695657e-20
1.42159411e-22
2.779736033e-21
3.236404339e-21
2.224109596e-21
3.5235945e-21
1.65679115e-21
6.671880314e-21
2.75021777e-21
3.113099727e-21
2.610590746e-21
9.528382392e-22
2.252064144e-21
2.114342178e-21
2.105226389e-20
6.351517653e-21
5.61506915e-21
2.166075267e-22
3.416506504e-22
7.748073192e-21
1.356060606e-20
8.44255757e-21
8.831323892e-22
2.591259009e-21
1.837547913e-22
6.189662091e-22
5.280364103e-21
1.728321089e-21
4.485018053e-21
1.612443198e-21
1.933827351e-21
4.569907979e-21
6.634868034e-21
7.356545283e-21
2.994248415e-21
2.199356379e-21
3.700782105e-21
1.11640364e-21
2.705671342e-21
4.710720553e-21
1.258479178e-21
4.428746106e-21
5.290465721e-22
1.037267193e-21
5.95370493e-21
5.995458598e-21
4.474282571e-21
5.455477709e-22
2.889543097e-21
9.889340187e-21
4.814262135e-21
8.742857833e-22
8.526053766e-21
6.762113671e-22
4.951214709e-21
3.277192859e-21
7.090964171e-22
5.397738282e-21
3.07891097e-21
2.656430852e-21
9.004446272e-22
1.313192551e-20
9.74629589e-22
1.441647055e-21
2.156427064e-21
7.509862134e-21
4.831562532e-21
1.70297722e-20
1.43932121e-21
3.07793244e-22
3.642917664e-21
4.01028657e-22
7.359125607e-21
9.571484824e-22
2.704039589e-21
5.547812333e-21
1.423156961e-20
4.744353829e-21
1.622414098e-21
7.057874297e-22
7.179649822e-21
5.0272023e-22
3.500238316e-22
1.101147839e-21
8.940853525e-21
6.640372019e-21
8.996927585e-22
7.374613795e-24
8.710873547e-21
1.761467189e-21
4.401362786e-21
1.227261382e-20
5.949416407e-22
5.963498998e-21
4.180727438e-21
4.378231253e-22
7.880535107e-21
2.414948849e-21
6.86383542e-21
5.829670879e-21
2.585064655e-22
6.55484601e-22
2.064611112e-21
3.232765276e-21
2.351322428e-21
1.014223057e-21
3.91170553e-22
6.256441374e-22
1.387770952e-21
3.726790552e-22
2.959502747e-21
9.074371313e-22
2.740503245e-22
4.119362677e-21
1.479355012e-20
1.50002489e-21
1.611924434e-20
9.688353101e-22
7.841066597e-21
1.25056329e-20
3.755964423e-21
1.599355507e-21
1.022048917e-20
1.209913452e-21
5.769450238e-22
2.174671271e-21
3.189555088e-21
2.311407116e-21
1.305687563e-22
3.791109023e-22
4.149860236e-21
8.255562275e-23
6.458165401e-22
1.719565765e-21
6.412039669e-21
2.860949196e-21
4.956103584e-21
1.108701152e-21
4.780506808e-21
2.608712866e-22
5.564664354e-22
2.672534631e-21
8.728663872e-21
2.195474367e-21
1.28214997e-21
2.063514681e-21
7.117120247e-22
5.427068479e-21
4.065149556e-21
3.336441101e-21
6.422986764e-22
4.309807739e-21
1.122027365e-20
2.270253658e-20
5.077750692e-21
2.232754111e-21
4.439709352e-21
8.371720233e-21
3.208748845e-22
1.264975884e-21
2.352296038e-21
1.148448333e-21
2.264589096e-21
8.510412817e-21
8.533993199e-22
2.381680513e-21
1.149168594e-21
2.946022625e-21
7.17654003e-22
4.226397801e-21
7.624563872e-21
1.386525679e-21
6.279238311e-22
7.686089573e-22
1.4173727e-21
2.241514552e-21
1.831970791e-21
3.351355216e-21
4.900457914e-22
4.658990744e-21
1.889332124e-21
9.153835613e-21
1.329380591e-21
2.930094135e-21
2.564378607e-21
5.616006641e-21
2.450124486e-21
5.275236099e-21
1.404560754e-21
2.616276198e-21
6.137898948e-21
5.367305023e-21
6.835673637e-22
1.704600722e-21
5.561040453e-22
9.51612758e-21
1.152518561e-21
4.149677951e-21
7.145867499e-21
2.559538597e-21
7.492133212e-21
4.501367655e-21
3.446423315e-21
2.214561511e-21
1.534861335e-20
1.217501412e-21
4.186743377e-21
3.11942979e-21
2.191598082e-21
1.442959291e-21
3.219628628e-21
6.183499293e-21
4.379936981e-21
2.705723167e-21
8.373487645e-21
5.244443913e-22
3.439506768e-21
9.54396081e-21
1.293262669e-21
1.926036391e-21
6.046003066e-21
7.63571197e-22
2.924517893e-21
1.512334603e-21
1.44952651e-21
8.826237592e-21
6.693877203e-22
2.086053068e-21
4.894064209e-21
4.520500612e-22
1.328011611e-21
4.647236961e-21
1.598032017e-22
1.339180088e-21
1.493836091e-21
2.122976285e-20
4.609034295e-22
4.546644418e-22
5.524525043e-21
6.445769764e-22
4.432419287e-21
1.077287745e-20
3.018404953e-22
2.711618902e-21
2.958412817e-21
4.413179985e-21
4.943029025e-21
3.474659276e-21
2.698642296e-22
5.634136654e-21
1.619852895e-21
8.196446444e-21
1.663075535e-21
6.434152417e-24
1.513342952e-20
4.077451319e-22
1.211344862e-22
9.714389081e-22
5.599587381e-21
3.683354324e-21
5.520471283e-21
2.363671002e-21
5.224544715e-21
5.22401321e-22
3.302395863e-21
1.158099171e-20
5.862869953e-21
4.85307602e-21
1.647099791e-21
2.591770253e-22
3.419950019e-21
2.236349481e-22
2.499993469e-21
8.80844416e-22
2.821592615e-23
2.900239924e-21
4.47895223e-21
4.030190948e-21
1.378977137e-20
5.227649553e-21
1.134320462e-20
1.708160462e-20
5.491080249e-22
3.176070794e-22
8.209359626e-22
3.064616968e-21
3.874406706e-21
1.538776518e-21
2.185149588e-21
5.820833124e-21
3.111208744e-21
1.443773096e-21
2.786181384e-21
2.246427827e-21
1.59929001e-21
5.303119977e-21
1.696371389e-21
2.801148163e-21
5.29833832e-21
1.993053693e-21
2.648875745e-21
2.282486828e-21
3.897168389e-21
1.092521364e-22
5.577719051e-21
1.040249063e-20
1.198042022e-20
1.19540018e-20
7.881894436e-21
4.028704486e-21
5.76619238e-21
7.411528627e-21
8.15358426e-23
1.545535411e-20
2.71225096e-21
6.045985943e-21
2.111119121e-21
7.047230336e-21
6.293660007e-22
1.267256541e-20
4.753147946e-21
2.385571041e-21
4.937309684e-21
4.270040917e-21
1.364673593e-22
5.072789749e-21
1.520218341e-22
3.19709555e-21
1.558258853e-21
5.730285972e-22
1.339636323e-22
2.54592964e-20
6.85236736e-22
1.274854345e-20
1.662963416e-21
5.285889253e-21
3.864991923e-22
2.207413231e-21
6.312696134e-22
8.858735643e-21
1.502667373e-21
9.437539755e-22
8.65202723e-21
2.838660061e-22
5.217570046e-21
3.08996433e-21
2.978795928e-21
4.186035699e-21
1.236539972e-22
1.523436996e-21
5.195920661e-21
8.083966758e-22
8.454856452e-21
9.391911954e-21
1.859860637e-20
2.59739112e-21
1.231113132e-21
2.971566824e-21
2.054000924e-22
8.165484219e-21
7.571084688e-22
4.886269351e-21
1.690486118e-21
7.890170413e-22
7.010498542e-22
1.025223581e-21
2.252292785e-21
1.764581023e-21
6.59469922e-21
2.453726369e-22
8.004335873e-23
1.484586151e-21
3.193120766e-21
6.616476827e-21
2.019546894e-21
1.645124982e-21
2.306173676e-21
4.690620974e-21
1.296754341e-21
7.638701693e-22
4.859896405e-21
1.874426018e-22
2.926470315e-21
6.935461338e-21
2.914516282e-21
2.675064422e-21
3.729509821e-21
3.077262519e-21
5.622320746e-22
4.346936374e-21
1.18665369e-21
1.573483277e-20
1.301124542e-20
2.634658325e-21
5.901342063e-21
3.347147163e-21
4.389441235e-21
3.415922282e-21
2.106709082e-21
3.198183614e-22
5.773495599e-22
1.885517058e-21
1.728553486e-23
1.259669956e-20
1.879264459e-21
2.746458809e-21
3.330203825e-21
5.427606428e-21
1.246150506e-20
1.516913384e-21
6.099747684e-21
4.07752748e-21
2.099570044e-21
8.195531021e-21
5.473724886e-21
6.181537463e-21
6.171483182e-21
1.536980412e-22
5.919800717e-21
1.279886149e-21
1.871622774e-21
4.737865577e-21
9.527462303e-22
1.457084024e-21
2.891228712e-21
1.076245657e-20
2.19318976e-21
3.661678555e-21
8.035777718e-21
6.357234746e-21
2.35792566e-21
7.941380865e-21
1.573349981e-21
7.590506178e-22
1.411395403e-20
1.168941081e-20
6.857194961e-22
5.605282152e-21
1.733198461e-22
4.616461647e-21
7.350985606e-21
2.154272757e-21
4.513690616e-21
7.302316812e-23
1.903380453e-21
2.737491211e-21
1.35155479e-21
1.385345248e-21
2.658322945e-21
2.569956148e-22
7.963357355e-21
7.226908718e-21
1.66424432e-21
1.699828359e-21
4.952937172e-22
4.691100457e-22
5.441830546e-21
5.341979376e-21
3.590774555e-21
4.075713862e-22
5.692074762e-21
2.912113101e-21
7.307994644e-21
7.67766617e-21
6.541852528e-21
1.417240785e-21
1.882722741e-21
2.275972739e-21
5.202111974e-21
2.297296674e-21
1.416996279e-21
3.88547668e-21
2.238966789e-21
2.190407537e-20
8.687645844e-22
3.771760891e-21
4.708009936e-21
1.339834085e-23
2.263549161e-22
4.380179313e-22
6.726911413e-21
1.917307425e-21
6.86432774e-22
1.243227761e-21
5.516881195e-21
3.153385474e-22
4.659988339e-21
3.593028511e-21
3.074364088e-21
4.177809475e-21
1.372193836e-21
3.714790803e-21
2.059329742e-21
1.043063889e-20
2.336098655e-22
4.325900431e-21
2.401141959e-21
9.693156189e-22
6.133344713e-21
1.501951672e-21
1.665645789e-20
1.293841231e-21
3.233635907e-23
6.147117006e-21
3.636234873e-21
3.608752326e-21
8.394634998e-21
3.355305243e-21
1.402748153e-21
5.206726592e-22
2.721303981e-21
1.830436683e-21
2.178301692e-22
3.046246812e-21
3.682807029e-21
6.096462337e-24
1.026134943e-21
3.696084734e-22
8.255244554e-22
7.535205519e-22
6.437785548e-21
8.147114765e-22
6.469070814e-22
2.302095724e-22
1.140129991e-20
2.715855466e-22
1.300611547e-20
1.369047072e-21
4.025278032e-22
4.552771161e-23
1.529316686e-21
6.267225535e-21
4.934322448e-21
1.729696341e-21
8.212632196e-21
4.658377778e-21
5.641062018e-21
8.288811165e-21
1.068543578e-21
3.207281429e-21
2.045209267e-21
4.575709601e-21
1.871084654e-22
1.009090076e-20
2.827766078e-21
4.41565102e-21
2.534830173e-22
6.558975331e-21
6.082295633e-22
1.560718221e-21
5.601016472e-22
1.678601518e-21
6.792901579e-22
1.448872902e-21
6.718634781e-21
1.232057517e-21
6.361479338e-21
2.221486713e-22
5.73903812e-21
4.731834978e-21
8.941398033e-21
8.489734532e-21
2.199982681e-21
3.468228174e-21
3.076405156e-21
4.028545082e-21
1.984301816e-21
3.291982632e-21
4.064394257e-21
6.039914529e-21
1.128030837e-21
7.549732376e-21
2.859603682e-21
2.33598814e-20
2.042523282e-21
1.477264279e-21
2.49489195e-21
1.897260266e-21
1.186949571e-20
1.861408772e-21
7.063965616e-21
2.042472389e-21
2.076653513e-21
2.646743917e-22
1.818026464e-20
1.098423124e-21
2.064030242e-21
2.400370546e-21
5.094676903e-21
7.798092788e-21
1.317191869e-22
5.29952752e-21
3.788360442e-21
1.074234928e-20
5.320714046e-21
4.087202828e-22
4.934149106e-21
5.48442087e-21
4.019412063e-21
7.539174854e-21
6.299677863e-23
9.787715762e-22
3.866058174e-21
2.448701695e-21
2.704231707e-22
3.290613479e-22
2.814424248e-21
1.039455088e-21
7.903284216e-21
2.133644802e-20
1.002972963e-20
9.844077895e-23
7.974994351e-21
5.855129935e-21
2.12170887e-20
8.146660479e-21
1.178908622e-20
4.563199355e-21
1.05554147e-21
1.05977608e-20
6.480281094e-21
1.970575939e-21
8.455577493e-21
4.229677872e-21
7.630210459e-21
1.596637438e-22
1.701588645e-21
9.122543165e-21
1.07540546e-20
3.388348571e-22
2.247671375e-21
3.510572331e-22
1.422404544e-21
2.545635939e-22
4.32992868e-21
9.836462399e-21
2.265669726e-21
2.417584236e-21
2.515894428e-21
2.363373504e-21
1.320385512e-21
1.895070749e-21
5.060372732e-22
2.972048939e-21
2.959826838e-21
6.341774093e-21
4.268427654e-21
5.922126916e-21
1.059452062e-21
2.31023753e-21
6.53625028e-21
7.996173228e-21
1.300479475e-20
1.412414326e-21
1.966326018e-21
3.866307571e-21
8.168613903e-21
2.286458347e-22
1.811340901e-21
1.315744687e-20
1.736781795e-21
3.812255948e-21
5.435870765e-21
9.327564131e-21