/*--------------------------------*- C++ -*----------------------------------*\
| =========                 |                                                 |
| \\      /  F ield         | OpenFOAM: The Open Source CFD Toolbox           |
|  \\    /   O peration     | Version:  2.4.0-MNF                             |
|   \\  /    A nd           | Web:      www.OpenFOAM.org                      |
|    \\/     M anipulation  |                                                 |
\*---------------------------------------------------------------------------*/
FoamFile
{
    version     2.0;
    format      ascii;
    class       Cloud<dsmcParcel>;
    location    "0.0008/lagrangian/dsmc";
    object      positions;
}
// * * * * * * * * * * * * * * * * * * * * * * * * * * * * * * * * * * * * * //

64126
(
(0.0009806521976 0.00234168112 -0.03018593085) 490
(-0.02627803593 0.002209085608 -0.01701505056) 1444
(-0.04917158893 0.03852442846 -0.0177497034) 1580
(-0.02945901781 0.02104749719 -0.03431707389) 564
(0.008964395598 -0.005458761535 0.03904091102) 4931
(0.04543106684 0.02943358136 0.02733997939) 4439
(-0.001723375806 0.00503314158 -0.03820190995) 189
(0.02050596285 -0.003555200145 0.01366603717) 3354
(0.02248306827 -0.01162449193 0.01678899968) 3634
(0.01858632944 -0.03332788216 0.03771362436) 4833
(-0.01148915844 0.00483434739 0.03180034633) 4647
(0.01751618385 -0.01745284491 0.02949759198) 4253
(-0.02264991459 -0.03274934296 -0.01167993257) 1625
(-0.0494531889 -0.02100791201 0.005139035986) 2940
(0.03968080588 0.006641724265 -0.03855018989) 197
(0.0135965836 0.02379535419 -0.02795099076) 892
(-0.04375860139 0.02870180584 -0.03681493) 261
(0.03776133211 0.007999227484 0.01350179012) 3397
(0.03315309291 0.03564955269 0.03991455044) 5116
(-0.02852212781 0.02959246795 -0.02699219254) 904
(-0.02594928076 0.01815797554 -0.004959777708) 2464
(0.04159551567 0.00441453383 -0.004657652008) 2418
(0.02444293594 0.02500377198 -0.0158403558) 1554
(0.03306706687 0.03561208053 -0.002538765153) 2556
(-0.0115643465 -0.032649563 0.004349704328) 2587
(0.01712179609 -0.02501361426 0.001546502158) 2613
(0.006527362133 -0.03236803688 0.03566882748) 4831
(-0.02428945071 0.03540418995 -0.01768362185) 1585
(-0.02359086396 0.003137872004 -0.02350497193) 1125
(-0.0160072661 0.01100666114 0.01205920037) 3406
(0.02498678062 -0.03025902606 -0.03088653038) 354
(0.009847981173 -0.02410210159 0.02871528548) 4231
(-0.01248244937 0.01973983551 -0.02044412394) 1187
(-0.04653500958 0.03846233507 1.429463993e-05) 2860
(-0.03496416319 0.01106996634 0.01691035773) 3723
(0.01618115969 0.000665200856 0.02201913235) 4013
(-0.04063766855 0.01656912109 -3.335535127e-05) 2461
(-0.01291526083 -0.0002481991126 -0.01189515589) 1747
(0.03911659199 -0.01402494386 -0.01276247684) 1717
(0.04067717468 0.0320580364 0.02064391565) 4138
(-0.03284781913 0.006536561476 0.03483686265) 4663
(-0.04650519263 0.03308971353 -0.02408784921) 1240
(0.04243901569 0.02985774741 -0.03295602135) 598
(0.02966067235 0.01546106274 -0.03249984817) 555
(-0.009602094635 0.003133990651 -0.02284631309) 1128
(-0.02211365394 0.01530147216 -0.02547244373) 865
(-0.04863502925 -0.02964235636 0.006515212899) 2920
(0.005334993782 0.03770994598 -0.02186967375) 1271
(0.03744659835 -0.03241511895 -0.01843878919) 1317
(0.04845924723 0.01175599331 -0.01566992395) 1499
(0.03278448263 -0.02098579406 0.03357198477) 4556
(0.009642741127 0.01316364111 -0.03476808852) 531
(0.01104937378 0.008116564393 -0.008158778223) 2112
(-0.0146920994 -0.009928229784 0.01542502294) 3647
(0.01757836071 -0.01384752672 0.0117294642) 3313
(-0.007200984105 0.03173249784 0.03477559893) 4768
(-0.00488773014 -0.03405619581 -0.0132450293) 1629
(-0.01747333876 -0.02668166383 0.01697928596) 3566
(0.007089412904 -0.003985450557 -0.02390735839) 1111
(0.006183611201 0.006010351485 -0.02638519577) 831
(0.009416611133 0.01064150698 -0.02228808496) 1171
(0.01900108653 -0.0312245523 -0.01348884984) 1633
(-0.03489335816 -0.01150770751 -0.01070128474) 1703
(0.03884257407 4.149787252e-05 0.03797637477) 4977
(0.001944976928 -0.01662770806 0.02294059003) 3930
(-0.005879220584 0.01640484647 -0.003959745578) 2468
(0.002318131313 -0.03745534232 0.03643257366) 4810
(0.03912338407 -0.02378493695 -0.003723117367) 2317
(0.03468221369 -0.02400839816 0.03245294159) 4556
(0.03631841679 0.012678072 -0.03732165746) 217
(0.02277122359 0.006868721658 -0.02673798913) 834
(0.04821887518 0.01204944329 -0.01433425257) 1819
(0.002494962443 0.01256263217 -0.0355937598) 210
(0.03143284298 -0.02578722635 -0.0369401271) 56
(-0.02735724754 0.01834666819 -0.03549268524) 224
(-0.02455187954 0.007197853339 -0.004423276216) 2425
(0.01824573925 -0.01039431327 0.01741539289) 3633
(-0.01175068414 -0.002085475799 0.003751780213) 2707
(-0.006676914644 -0.01923938032 0.014286118) 3288
(-0.007485245337 -0.01972635517 0.008492670955) 2968
(-0.03572457985 0.001582450587 0.03318027243) 4642
(-0.0493608327 -0.01298407855 -0.02961191985) 740
(-0.0002616551574 0.03812844799 0.01012153151) 3509
(-0.02217032083 -0.009848412814 -0.008059125341) 2045
(0.04468570214 -0.02141457389 -0.009598620168) 1998
(-0.04991752311 0.003457726294 -0.01068834082) 1760
(0.004114317924 -0.03888624687 0.0205870359) 3850
(-0.03281329629 -0.01068350315 -0.01983608944) 1383
(-0.03735257038 0.0376676347 0.01740414807) 3822
(-0.01204478444 0.02334631291 -0.03114890067) 567
(-0.007565841259 -0.03961074535 -0.02502532449) 648
(0.006523684474 0.03651294812 -0.01931882392) 1591
(-0.01627429707 0.03316577821 -0.02499133363) 1246
(-0.01406185979 0.01137119398 0.03448180567) 4687
(0.03631276877 -0.01058970672 -0.01471388724) 1717
(-0.04029537816 0.00931945631 -0.03566169763) 181
(-0.01851555244 0.01812359698 0.0152681156) 3746
(-0.025430426 -0.01827098828 -0.02946250698) 724
(0.01592377138 -0.03008206694 -0.01997932326) 1313
(-0.02152880061 -0.00908016248 -0.01741471998) 1405
(-0.03128304687 -0.009125134619 -0.01435837203) 1723
(0.002822467049 -0.01159130244 -0.0245381944) 1070
(-0.02099047514 -0.03389812267 0.005428705609) 2905
(0.01329676868 0.02735219208 0.02811235943) 4432
(-0.007181000521 -0.01640622859 0.01397629042) 3288
(-0.02294169344 0.02639440218 -0.01902067755) 1545
(0.02767689185 0.0166579767 -0.008958675624) 2155
(0.02962592366 0.001606926034 0.008780754116) 3055
(-0.02851021161 0.01922504123 -0.03159420386) 544
(0.03643096764 -0.02055208132 -0.01160879315) 1677
(0.04718330383 0.02604233522 -0.02814244205) 919
(0.006335998437 -0.02098511461 -0.01835499892) 1351
(0.0226183354 0.005988661174 0.01632907575) 3714
(0.006783519782 0.01175506361 0.03033006533) 4691
(-0.0140277329 -0.0181883008 0.01982172836) 3607
(-0.003695843885 0.003427350744 -0.007693255841) 2089
(-0.02841495895 -0.01007587087 0.02044491663) 3944
(-0.006477789982 -0.03801793212 0.02537689857) 4168
(0.03802087009 0.01211862135 -0.00467953931) 2457
(-0.04653448669 -0.02075280568 0.02042558732) 3900
(0.03122234613 0.02039097571 0.002140789522) 2816
(-0.01647583369 -0.03739284508 0.03158699538) 4486
(0.04252944007 -0.004963276006 -0.005043997325) 2078
(0.02721436801 -0.01082792461 0.01486615397) 3315
(-0.03065991686 0.0318885333 -0.02792872496) 923
(0.03508532977 -0.0316086077 -0.01918571474) 1317
(0.008636309401 0.02837765433 -0.01006164538) 1871
(0.005544610092 -0.03273092833 0.01606110769) 3551
(0.02509214468 0.02146458399 0.02483839704) 4095
(0.03345883208 0.02159485034 -0.009969866124) 2176
(-0.04717975885 0.009115453172 0.02853007557) 4340
(0.04993398455 0.0371068939 0.02845875174) 4479
(0.03391512423 -0.001718931555 -0.03190771404) 476
(-0.03459307844 -0.02324752991 -0.02137143259) 1023
(-0.03077500791 0.03802244124 -0.02556595276) 943
(-0.02370832517 -0.03406883168 -0.01284643854) 1625
(-0.01279632692 0.00844336901 0.02075184563) 4027
(-0.02474293143 -0.01825908406 0.01775395903) 3605
(0.03159101587 -0.01148924625 0.0099730742) 2996
(0.03807378879 0.03768378154 0.005578265186) 3197
(0.03149751893 -0.01194262058 -0.03738434228) 116
(-0.04403694775 -0.001920656107 -0.002236854843) 2381
(0.03609704159 -0.009873564449 -0.00863161304) 2057
(-0.04147080236 -0.03732134528 -0.001468655711) 2241
(0.02844681666 -0.03968763914 -0.001497647927) 2255
(0.04497467622 0.01705185162 -0.01510254894) 1518
(-0.04954545941 0.02485620262 0.03447689827) 4720
(-0.0318498268 0.02556064315 0.02605082746) 4423
(0.04624641103 -0.02979978879 -0.004703261478) 2299
(-0.01788437595 0.01581320168 -0.01058571189) 1826
(0.03026573416 -0.009409102296 0.02716730776) 4296
(-0.04716927391 0.02133681723 -0.007535291391) 2160
(-0.02248715699 0.03340643157 -0.01499312026) 1885
(-0.009817154098 0.01644801269 0.02909929423) 4388
(-0.0356455502 0.02245068914 -0.01048139073) 1842
(0.015521199 -0.03154321412 -0.01144714065) 1633
(-0.03876577627 0.019357658 0.02797865377) 4382
(-0.03029820707 0.0244813439 0.03334972753) 4723
(0.04319692412 0.0255486432 -0.03057377982) 598
(0.02413342965 -0.01431974818 -0.02639853377) 754
(-0.03194042389 0.0253958764 -0.03388319182) 583
(-0.03548790874 0.01585866168 -0.01507566516) 1502
(-0.02737125156 -0.03323460278 -0.00788331755) 1944
(0.02584239009 0.01744025014 -0.03762798016) 235
(-0.03634802315 0.03790069284 0.01989890005) 3822
(0.03326645874 0.006967887669 -0.004759869101) 2436
(-0.007397535053 -0.02197327233 -0.02978747067) 708
(-0.01447573549 -0.0246570065 0.0397729679) 4867
(0.01277350138 0.02723443688 -0.02703616765) 912
(0.01517805692 -0.01246639785 0.005148448442) 2993
(0.0007270095777 -0.03080603536 -0.03956695076) 30
(0.0291808406 -0.02535575068 0.004268472032) 2615
(-0.04558684023 -0.003351887555 -0.03003999546) 460
(0.0243758374 0.0004240927756 -0.03558666809) 174
(-0.03683039759 -0.001878983419 -0.0369853577) 142
(0.01610226621 0.03873416947 -0.002528350903) 2553
(-0.0006477207788 -0.01115994884 -0.005478742126) 2029
(0.03473897277 -0.03442542736 0.01500339261) 3556
(-0.04278849458 0.03939371585 -0.03242357432) 621
(0.04787344161 -0.007434362571 0.02545364532) 4299
(-0.01695579865 -0.03833194428 0.02611027852) 4166
(-0.04333050452 -0.02240379949 -0.01509705878) 1341
(0.01827447482 -0.0004379099334 0.004986747804) 2713
(-0.04683105078 -0.02908315433 -0.02885272051) 680
(-0.000418821253 0.01002396694 0.03472153306) 4689
(0.04723726925 -0.02509710544 -0.0004183979496) 2299
(-0.00661814372 -0.0345983318 -0.03387693718) 348
(0.03751278555 0.01218029568 0.007581527009) 3097
(0.01401176927 -0.009306027345 0.02687708056) 4292
(-0.01206852146 0.005681945094 -0.003263669801) 2427
(0.002715183972 -0.007932842135 -0.02670720785) 770
(-0.04624256862 -0.006957079989 0.03341084209) 4600
(0.01918204646 0.02156027748 -0.01633566715) 1533
(-0.02097849052 0.02487769587 0.001520763355) 2805
(-0.02266857826 0.01938047111 -0.02054032844) 1185
(-0.02496952859 0.01504079822 0.01874786798) 3745
(0.02336792961 -0.02734336209 -0.02671350167) 694
(-0.009846362794 -0.008759686827 -0.00649876825) 2048
(-0.008560676171 0.008998441498 -0.004971682156) 2428
(0.008301615242 -0.03685730658 0.03060625894) 4491
(0.04455904035 -0.03123355017 -0.003659825136) 2278
(-0.04095625313 0.01639369679 0.03477958693) 4701
(-0.02966720298 0.01571725176 0.03785214562) 5024
(-0.01650211799 0.02116058438 0.02494644496) 4086
(0.007885259178 -0.002422424623 0.03042182216) 4631
(0.02061947273 -0.01991666067 0.003881271409) 2654
(0.00983988597 0.01939419151 -0.03687163104) 231
(0.007468027206 -0.03390571388 -0.003690762372) 2271
(0.01231183186 -0.02684068849 -0.03999258904) 52
(-0.04609725387 0.007463428295 0.02634227014) 4340
(-0.008450074441 0.007356632589 -0.02499630414) 1148
(-0.006569726118 -0.02895405455 0.01341000433) 3248
(0.008619706521 -0.001487193232 -0.03994940828) 151
(-0.0204288987 0.01795432807 0.03086571053) 4705
(-0.02897815041 -0.02893555246 0.0005676689612) 2604
(0.03368178546 0.03079729105 -0.01890669624) 1576
(-0.04397587954 -0.01952350848 -5.263040179e-05) 2321
(-0.03234761058 0.02679902786 -0.005137873766) 2183
(0.03232976823 0.003441631445 -0.005826451384) 2096
(-2.689911697e-05 0.0003842113155 -0.02321619588) 1129
(-0.02079444791 0.03729571954 0.02755949642) 4465
(-0.01433141583 0.003445793421 -0.0321171489) 487
(-0.004030510258 0.007864997175 0.02363816446) 4029
(-0.04696572772 -0.01423053629 -0.03299660438) 420
(-0.02547024734 0.001415424733 -0.02275343242) 1124
(0.01521771774 0.0323687742 0.004494193882) 2853
(0.02155339894 -0.001173586151 -0.02353230313) 1114
(-0.03204432212 -0.02261206108 -0.01314794498) 1663
(-0.03469759779 -0.0342364326 -0.003850503725) 2263
(0.01975499395 0.007242437394 -0.01157728363) 1793
(-0.01083624042 -0.03719434304 -0.03480222415) 327
(-0.00861915852 -0.02489576161 0.03379655247) 4548
(0.04507615859 -0.0190997709 0.001691234697) 2659
(0.03316478282 0.01178287274 0.03173770182) 4696
(-0.02742189341 0.00236169293 0.01077294732) 3364
(0.01653927928 -0.03604332818 -0.01836028757) 1293
(-0.03741453474 0.01338363512 -0.01277141893) 1802
(0.02261902195 0.01719547957 -0.03623480699) 234
(0.04875267577 -0.02267004353 0.0170604119) 3599
(0.003581227252 0.03867057832 -0.03604499669) 310
(-0.009560984522 0.029411892 0.007363961629) 3148
(-0.004558526577 -0.03328792021 0.03878787736) 4829
(-0.04157693863 0.03206299077 0.01740363299) 3801
(0.02539918327 -0.02830555571 0.03770971317) 4855
(-0.02069506307 0.002782525302 -0.0394583742) 165
(-0.03417450518 -0.03012097026 -0.0369586936) 23
(-0.04811037957 -0.01317722932 0.02356085249) 3940
(-0.005510840798 0.02308449041 -0.03902958857) 248
(0.02693838697 0.003239092944 -0.03529646903) 175
(-0.005802886351 0.02352636711 0.03038362403) 4728
(-0.04808928557 -0.01516916833 -0.01971694497) 1360
(0.0469200954 -0.0006498956853 0.0125379555) 3359
(0.03678802208 -0.007403238213 -0.00286904505) 2377
(-0.03417195693 0.01290751222 -0.01960102989) 1483
(0.03849953917 -0.02027932955 -0.03224801868) 397
(0.00853169344 0.02225417388 -0.03958471687) 251
(0.04705432189 -0.03965613627 0.03544998771) 4819
(-0.0226288991 0.009355392064 -0.004638019935) 2425
(0.0495217575 0.02206860478 0.03120231047) 4739
(0.04950918117 -0.004273962764 -0.02044824403) 1119
(0.0003465099569 0.01312796584 -0.03715708561) 210
(-0.03955211405 -0.01262294893 0.038663794) 4902
(-0.02546759976 -0.0212197664 -0.01059123655) 1664
(0.03767577334 0.01936292804 -0.02933504694) 877
(-0.04913757039 0.0399213411 0.02395226031) 4140
(-0.04524230774 -0.01435465207 0.01347119152) 3300
(0.03655730653 0.03781548922 0.001169601578) 2877
(-0.03108251574 -0.01826096684 -0.033902072) 403
(0.035856681 0.01096883078 0.03693227161) 5017
(-0.0253076534 0.01541358579 -0.01420579982) 1824
(0.03661302856 -0.001738352381 0.008183838364) 3037
(-0.03201031405 0.03234871691 -0.0001220854398) 2523
(0.01398937124 -0.005465516095 -0.0127776452) 1732
(0.02304205439 0.008377538356 0.0330952218) 4674
(-0.0113000979 -0.03646349648 -0.007877181774) 1927
(-0.04325606798 -0.02725235602 0.01233015808) 3241
(-0.002965304435 -0.01791415155 0.03947450055) 4889
(0.01722293435 0.03879033211 0.0003628718478) 2873
(0.03905690941 0.004454614939 -0.02327393997) 1137
(0.006144574242 0.02896457305 0.0261985627) 4431
(0.01468980441 -0.004373801504 0.001810244898) 2712
(0.04850088622 0.009817334707 -0.02109617608) 1159
(-0.01832976242 0.01291062763 -0.01442366875) 1806
(0.04049852261 -0.001467212197 -0.01351943373) 1758
(0.04940639427 -0.000619534361 0.001655625356) 2719
(0.02033396149 -0.002821866083 0.000630441082) 2714
(0.01010380783 0.004881368342 -0.03218743667) 492
(0.03119778992 0.008076107908 -0.02912420455) 836
(-0.008432516849 0.03485635533 0.03586628364) 5088
(-0.01018942544 0.01033377117 0.006861172899) 3087
(0.02176832019 -0.0283643503 0.03105613654) 4534
(-0.01045062827 0.03422629015 -0.003972620595) 2527
(-0.04451012731 -0.007436565181 -0.03899258747) 121
(0.01440483703 -0.02235749391 -0.02594495934) 712
(0.04758726125 -0.02075334505 0.03477069018) 4559
(0.007826920071 0.02868695982 0.02147272697) 4111
(-0.003336386423 0.001985212008 0.01013525435) 3369
(-0.0378821563 -0.01750659201 -0.008523594334) 2002
(0.01572736405 -0.03826251779 -0.0004185112999) 2253
(0.04152533428 -0.02333106061 0.03904513146) 4878
(0.009950299667 0.01246120303 0.01951845451) 3731
(0.04943680366 0.000913281615 0.02180624038) 4019
(0.04129715884 0.03287584647 -0.01386430816) 1898
(0.0377048758 0.001261488606 -0.00908356104) 2097
(0.0111912175 0.009874655949 -0.002381899306) 2432
(-0.02051831492 0.03017942939 -0.02024173155) 1245
(-0.02495550036 -0.0309368388 -0.01954541389) 1305
(0.001715500519 -0.02330896264 -0.007205798085) 1990
(-0.002254555265 -0.02917299039 -0.03953198723) 49
(-0.003965115008 -0.03967188947 -0.03160848863) 329
(0.002949397745 0.005322793315 -0.03807034379) 190
(0.009300426335 -0.009013781022 0.01852958891) 3651
(-0.01389432628 0.006125817587 0.00272257942) 2747
(-0.04732787006 0.01483898321 -0.02681606862) 840
(0.008719491507 -0.03804092112 -0.01067954711) 1611
(-0.02373396384 -0.01674964094 0.001241876491) 2645
(0.04229109387 0.01572365169 -0.01622204959) 1518
(-0.006031497667 -0.03135255948 0.00681825395) 2908
(-0.01089326644 -0.03868913009 0.03323321558) 4487
(0.01305996574 0.0210981427 0.0114372985) 3452
(0.01301776838 0.012434353 -0.0266643425) 852
(0.01831130985 0.02621198743 0.03436266472) 4753
(0.04688178754 -0.03501491936 0.00610629183) 2899
(0.008904401666 -0.03552995913 0.01563407302) 3531
(-0.006448149339 -0.008911638013 -0.001226228058) 2368
(-0.04879012817 0.006732537625 -0.009495288002) 2100
(0.04017983518 -0.003668192475 0.01454082584) 3358
(0.04550508815 -0.03538739942 -0.03646764261) 19
(-0.04148907106 0.01077114204 0.01136928906) 3401
(0.04319648259 -0.01394213291 0.02955444308) 4278
(0.0154772283 0.01052496092 0.006474399509) 3093
(-0.02807425272 -0.006217901149 -0.03305602097) 444
(-0.00218766478 0.01776978733 -0.001748820729) 2469
(0.02604999172 -0.02252921011 0.006917420281) 2955
(-0.0190198529 -0.03803571405 -0.03895487898) 6
(0.009618182055 -0.01892161289 -0.01462942164) 1691
(-0.02943385489 0.01541037422 0.03387926451) 4704
(-0.03766692495 0.006699728883 -0.00979648477) 2102
(0.006933933308 0.01869863826 -0.0357256837) 231
(-0.01970932125 0.02799011697 -0.02959473428) 906
(-0.01831355539 0.009556183576 -0.01893650525) 1466
(0.01466912208 0.02619486187 0.02708879846) 4432
(0.01737067468 -0.006572527841 -0.003789094853) 2373
(0.03022857593 -0.0202439676 -0.03681654951) 76
(-0.02448375403 0.01363785661 0.01040590439) 3405
(0.01959367356 0.03283097168 0.01574833986) 3813
(-0.04844262817 0.009484988632 -0.01727543602) 1460
(0.0292961636 -0.03697114289 0.0270721311) 4175
(-0.01515556688 0.02327438654 -0.02486423408) 1206
(-0.03636155705 8.490981519e-05 -0.03566924013) 162
(-0.01390690054 -0.03596215601 -0.01575657686) 1287
(-0.01755311994 0.03881550205 -0.006258793677) 2226
(0.019050987 -0.0226989431 0.0377809056) 4873
(-0.02589516823 0.03307324222 -0.003934528894) 2524
(0.04925216607 -0.02953083882 -0.01014979348) 1659
(0.03766639135 -0.03476602289 -0.03368907039) 357
(-0.004855539867 0.02322897608 0.007173767776) 3129
(-0.00886202417 0.0325855012 0.01486328275) 3488
(-0.03157532434 0.03690514065 0.0217093949) 4143
(-0.009321183592 -0.03559593566 -0.03299418781) 328
(0.03361597789 -0.006890580216 -0.001792662986) 2376
(0.01691301888 0.03233140301 0.02071652652) 4133
(0.001869693297 0.006597540567 -0.02627516913) 830
(0.01112271561 -0.004901299176 0.03870864072) 4952
(-0.04105012097 -0.01759310889 -0.01939613498) 1361
(0.04524934972 -0.02311325941 0.01725262757) 3599
(-0.01672397154 -0.01080083869 0.03086583333) 4586
(0.04228514279 -0.01765748263 -0.01284521135) 1698
(0.02639714198 -0.003633375313 -0.01724863765) 1435
(0.01263456093 -0.02990059918 0.007468308077) 2932
(-0.04103606616 0.00313926327 0.03471936676) 4641
(0.04890001649 0.01251170243 0.03556093374) 5019
(0.01380436494 -0.0287088717 0.009993195628) 2932
(-0.02695781827 -0.01319589676 -0.02813979361) 744
(-0.02418810324 0.03661962799 -0.001963019553) 2545
(0.01187494194 -0.001725439309 0.005353277623) 3032
(0.02827372779 0.02767252634 0.01330643832) 3475
(0.04587779684 0.03278867065 0.03632368424) 5099
(-0.04911324356 0.007914193102 0.006699461714) 3060
(-0.04525512917 -0.03955322728 -0.01799674398) 1280
(-0.03478678177 0.02983753802 0.03167454287) 4743
(-0.03590842149 -0.0001719074007 0.01105661815) 3342
(-0.03552944748 -0.01436955263 0.004758112399) 2662
(-0.03478819246 -0.01988635034 -0.02513631953) 723
(0.02264964329 -0.02837154059 -0.03939928728) 54
(0.01411038116 -0.01550356594 -0.033260806) 412
(-0.01883302087 -0.0003041001827 0.005412208711) 3026
(0.0008988480504 0.01836577685 -0.009112543814) 2150
(-0.003028965166 -0.02097597373 -0.02947993743) 709
(-0.02950278232 0.02674698329 -0.02589330485) 904
(-0.002191756341 0.00324705118 0.02754635299) 4329
(-0.03185462957 -0.03817174586 -0.01134557285) 1603
(0.0321266047 0.009778964508 -0.02640121317) 836
(-0.01346314321 0.009227606378 0.02838118554) 4347
(-0.01242756367 0.02735131773 -0.02658857559) 907
(0.02224853922 -0.01776365254 0.025546576) 4254
(-0.03450459088 0.02116725531 -0.01896293832) 1523
(0.02425409318 0.03008974072 0.01629591037) 3814
(0.02241382551 -0.002726648058 0.02193736833) 3994
(-0.01417804548 -0.003424625502 -0.02190385709) 1107
(0.04130573403 0.02350515889 -0.005263777445) 2178
(-0.002924915013 -0.02451235801 0.02093712559) 3909
(0.02442126358 -0.01246611681 -0.0195537085) 1394
(-0.03860103394 -0.03342184806 -0.03549278537) 22
(-0.01387720264 -0.0301502326 0.005637157161) 2907
(-0.01697994497 0.01641707732 -0.0141077889) 1826
(-0.01461564692 0.007025805733 -0.03165852543) 507
(0.009665882311 -0.01253449242 -0.03427508216) 431
(-0.01105755032 0.01880220964 0.02753126224) 4387
(-0.010184325 -0.02580724213 0.01845955647) 3567
(0.03146749225 -0.00384833873 0.03672152653) 4956
(-0.01358526352 -0.0116988964 0.03680638052) 4907
(0.03170665425 0.03178078238 -0.01552989748) 1576
(-0.02231897706 -0.0123880803 0.009652722817) 2985
(0.001647357477 -0.02285585229 -0.0184007831) 1350
(0.04906503435 0.01642430299 -0.03630631845) 239
(-0.004257227253 -0.02681750005 0.01182104531) 3249
(0.03720597375 -0.03707850062 -0.03053106213) 337
(0.03917901091 -0.03231876837 -0.03875476215) 37
(-0.0141186107 0.01609886572 -0.03340751173) 547
(0.02067111568 0.02647232831 -0.005775317346) 2194
(0.003738800476 0.01830613908 -0.02618068561) 870
(0.01987075874 0.02211442429 0.0102050011) 3453
(-0.03891518163 0.008008629094 -0.0006674612202) 2422
(0.03681667677 0.01583731926 -0.03191366087) 557
(-0.04063393901 0.0152264769 0.03973155774) 5021
(-0.01458261397 -0.01900174148 0.03135871974) 4567
(0.04014576217 -0.03067162056 -0.01026109202) 1638
(0.03332576437 0.01652215333 0.01459624563) 3436
(0.002075779041 0.01087882672 -0.03965833939) 210
(0.01605213465 -0.008936151351 -0.03741554106) 133
(-0.002975730169 0.0002367506504 -0.0311803138) 489
(-0.04814945871 -0.009782622454 0.03695238626) 4920
(-0.01097777306 -0.01767275413 -0.001143756655) 2327
(0.0478697584 -0.02510374604 0.02083882565) 3899
(0.03970170413 -0.03205520363 0.03549736558) 4837
(0.03036713438 -0.01035147418 0.03218190461) 4596
(0.03056778083 -0.0263356088 0.006168463474) 2936
(0.00817965093 0.02606520099 0.01598052699) 3791
(-0.03065229339 -0.02271416048 -0.02773769342) 703
(0.034534175 -0.03017993946 0.007962135457) 2916
(-0.01443692065 -0.01063167892 0.03428891342) 4587
(0.01146185602 -0.02844439126 0.02014235957) 3892
(-0.002039802551 -0.007333216612 -0.02641744423) 769
(0.008121520424 -0.008880712109 0.03494988731) 4611
(0.04881664048 -0.01959764637 0.01098497635) 3299
(-0.01254444177 -0.02656864863 0.02821678426) 4207
(-0.02809059043 0.01113298784 -0.02038093005) 1164
(-0.03933021134 0.01560797574 -0.01165330682) 1822
(0.04152947054 0.03932328389 -0.02801933059) 958
(-0.008048204545 -0.02698118032 0.01344065357) 3248
(-0.03916110124 -0.02861494919 0.008981619162) 2922
(-0.02873013888 0.01488194589 -0.01281778551) 1804
(-0.02104993394 -0.01529034322 0.0104356231) 3285
(0.03210528454 0.01517608208 -0.03046803215) 556
(-0.0304219778 -0.005790469778 0.01720712856) 3643
(-0.02904243766 0.01426583704 -0.03629126982) 204
(0.004665455935 -0.002884057715 -0.01265890659) 1750
(0.01503697273 -0.0002515517471 0.004598163459) 2713
(0.0008337081814 0.004486067788 0.0185454289) 3690
(0.006020417731 0.03387171026 0.03904466617) 5091
(-0.0431131689 -0.03510550187 2.421360368e-05) 2561
(-0.01214004768 0.01590569661 0.01203730072) 3427
(-0.01874958824 -0.01529250136 -0.01947689731) 1366
(0.01240456883 0.01660153397 0.008174408281) 3112
(0.001433496773 -0.03036394211 -0.02267469158) 990
(0.03359701843 -0.008249884794 0.03897543839) 4936
(0.04864905941 0.02713168523 0.03661499225) 5079
(-0.02913537581 0.01937680872 0.01750291412) 3744
(-0.04753060129 -0.03093766468 0.0138510008) 3220
(-0.005932616459 -0.01357828783 -0.01790372662) 1388
(0.04876338143 -0.02985543991 0.03004498606) 4539
(0.02699465641 -0.01799965759 0.02243519757) 3935
(0.03926624029 -0.03308981405 -0.03334362843) 357
(0.001872460516 0.02915935656 -0.005932371519) 2190
(-0.04296286292 -0.034833426 0.02764833162) 4181
(-0.0466737288 0.0200326546 -0.01283085385) 1840
(-0.004682338686 0.03576074919 -0.01668108539) 1589
(0.02830552605 -0.029350305 -0.03621903757) 55
(-0.04676892431 0.02713445165 0.02977449274) 4420
(0.04498516392 -0.02929968327 -0.02523999497) 698
(0.01284285553 0.03401933733 0.001452602461) 2852
(-0.006782956528 0.01153566707 0.03879799371) 5008
(-0.003586642476 0.02638086597 -0.0102471619) 1869
(0.001641491027 -0.02602421144 0.02171165419) 3890
(0.00162084205 -0.0245279091 0.03720340103) 4870
(-0.01356004143 -0.01783640703 0.03430845775) 4567
(0.0319822223 -0.02818898523 0.0114138456) 3256
(-0.02775986181 0.001489468781 0.01360614521) 3364
(-0.007479128509 0.009723005729 -0.03241461844) 508
(-0.00165692712 0.000964591035 0.02132312068) 4009
(-0.01230917107 -0.001879163924 0.006910274287) 3027
(-0.034309499 -0.02036421172 -0.03721778842) 63
(0.04939725685 -0.02724130189 -0.03655016799) 59
(0.001859832197 -0.03272410046 -0.03416887163) 350
(0.04904368547 -0.02863364397 -0.01258847825) 1659
(-0.03844630574 0.01562498353 0.01163743005) 3422
(-0.04234039501 0.02320260315 0.01861043123) 3761
(-0.04718411231 0.03325797623 0.002416366373) 2840
(0.001991156023 0.01884794661 -0.03250162049) 550
(0.04996023289 0.03820088678 0.007881398548) 3199
(-0.02948796627 0.03819164065 -0.01587253591) 1584
(0.003471182642 0.01017433002 0.0372535869) 5010
(-0.009036084302 0.03764799413 -0.01991446625) 1588
(-0.0014750509 -0.02056534612 -0.008221417006) 1989
(0.03758167952 -0.03346216714 0.03915073634) 4837
(0.002450159199 0.02194335558 -0.004773324364) 2490
(-0.02944834129 0.003810801593 0.005921455466) 3044
(-0.008323824666 -0.01593760343 0.012018955) 3288
(0.04007094979 0.005519802548 0.01455877657) 3398
(0.02674215997 0.02136813881 0.02119519117) 4095
(0.03047711927 0.03928947466 0.02382984399) 4156
(-0.04395623945 0.01550952446 -0.03861122919) 221
(0.02763092505 0.02587327596 0.001992187569) 2835
(0.004172776215 0.008264621694 0.03676436031) 4990
(-0.04964163516 -0.02629233398 -0.01057080672) 1640
(0.01197247702 -0.02657950683 0.02380097167) 3892
(0.04614849837 0.02104930367 0.01872300568) 3779
(-0.04272495157 0.005378978144 0.02146411839) 4021
(0.0458677024 -0.03104700831 0.005307724541) 2919
(-0.003567913987 0.002570665851 -0.03957267872) 169
(-0.01250360844 -0.02266828123 -0.003116568286) 2307
(-0.03559766044 0.02657617535 0.01300384191) 3462
(0.03238244355 0.0370944273 0.03981477781) 5116
(-0.01534060979 0.01220383546 -0.03097629668) 526
(-0.01924177961 0.01938688429 0.03900548504) 5026
(0.04754072004 -0.03481259892 0.02219591707) 3879
(-0.02306038642 -0.009867947277 -0.02232948814) 1085
(-0.02960146646 -0.009549201603 -0.02605178456) 764
(-0.02839770099 0.02614930059 -0.02157471217) 1224
(0.0009054399058 -0.03121352566 0.03987432449) 4830
(0.04831017276 -0.0371928364 -0.002205043854) 2259
(-0.003618769098 0.01087316723 -0.01092607485) 1809
(0.01787788804 0.01475406577 -0.005969761507) 2133
(-0.01127117146 -0.002240077554 -0.03667258994) 147
(-0.005464077096 -0.02753079313 -0.02647078496) 688
(-0.04531177891 0.02114580424 0.004119413225) 2800
(-0.04729333825 0.001324192532 0.007564645089) 3040
(-0.01386829132 -0.03257584152 0.004029684928) 2587
(-0.02499265331 -0.02515888511 -0.02583792485) 685
(-0.04901873736 0.03185256901 0.03711083442) 5080
(-0.03181299878 0.009393918307 -0.02451085713) 1143
(0.04684825844 0.02348980747 0.03547527548) 5059
(-0.03302299085 -0.002204942823 -0.03404000512) 463
(-0.02299456249 0.003161022634 -0.01727720417) 1445
(0.03727322754 0.02473996037 -0.00173611403) 2497
(0.01541758259 0.02778045945 -0.01446968445) 1873
(-0.0308178263 0.002650398433 -0.01059797366) 1763
(0.04454614302 -0.01918324755 -0.01742195852) 1378
(-0.01046902791 0.023383799 -0.004105363922) 2487
(-0.01751365648 -0.01417295868 -0.03069811679) 426
(0.04642106275 -0.02778076209 -0.01681127153) 1339
(0.02013418144 -0.003424816122 0.02227366631) 3994
(-0.01920722028 0.02046689187 0.02971658121) 4406
(0.01372030098 -0.02193569159 -0.01568498691) 1352
(-0.01373608247 -0.0113035038 -0.01635169108) 1387
(0.0003189450336 -0.007034456496 -0.02416568456) 1090
(-0.02096073518 -0.03621264245 -0.01554006005) 1285
(0.0352296601 -0.03848812751 0.02011530276) 3857
(0.01954604678 0.02914734125 -0.03857738091) 273
(0.04669243945 -0.01580294915 0.01664195159) 3619
(-0.02668988889 -0.02672213886 0.02022425639) 3884
(0.03098155225 0.03797042024 -0.03991651084) 316
(0.03528493631 0.03525034339 -0.01778933873) 1597
(0.03670110726 0.01356887982 -0.02058313045) 1177
(-0.03203548007 -0.00820921954 -0.01570519349) 1403
(-0.03503422359 -0.002545469737 0.0341844972) 4622
(0.0300741981 0.008731506003 -0.01798033982) 1476
(-0.04255310838 0.01602659911 0.03674818746) 5021
(0.02023706799 0.03071796787 -0.001951166797) 2534
(0.03659724153 -0.002678287592 -0.005339483476) 2077
(0.03850308973 0.005204649413 0.01592109908) 3717
(-0.02194559404 0.003768672606 -0.007876878707) 2085
(-0.01433549815 -0.03018334446 -0.01637357502) 1307
(0.008192965537 -0.03795602943 0.0190556957) 3531