/*--------------------------------*- C++ -*----------------------------------*\
| =========                 |                                                 |
| \\      /  F ield         | OpenFOAM: The Open Source CFD Toolbox           |
|  \\    /   O peration     | Version:  2.4.0-MNF                             |
|   \\  /    A nd           | Web:      www.OpenFOAM.org                      |
|    \\/     M anipulation  |                                                 |
\*---------------------------------------------------------------------------*/
FoamFile
{
    version     2.0;
    format      ascii;
    class       vectorField;
    location    "0.0008/lagrangian/dsmc";
    object      U;
}
// * * * * * * * * * * * * * * * * * * * * * * * * * * * * * * * * * * * * * //


64126
(
(1876.293428 112.5083837 29.46606241)
(2124.84756 36.04920788 311.8523821)
(1499.823527 4.973131055 192.4890239)
(2060.551368 -352.295442 -36.51167175)
(1847.762245 -14.39000712 9.270373836)
(1646.844473 -332.4714372 509.4262643)
(2097.916227 -307.6596657 -467.1221005)
(2290.903121 -526.4182716 75.61532596)
(2101.864787 88.03990101 351.5863696)
(1777.744686 347.6621277 226.7853934)
(2105.766023 -18.7728164 187.1588528)
(2507.539627 150.7145955 137.3553215)
(1844.051363 46.27358587 90.53709568)
(2131.063987 -604.3695691 342.1724941)
(2006.751104 -151.82997 42.83477089)
(1665.321801 -290.3404664 -152.2277334)
(1987.64658 178.8319897 -175.4079251)
(1893.723733 171.4556091 80.59371581)
(1827.752858 -131.5309797 238.0573172)
(2609.845449 713.4527068 37.30782794)
(2371.170051 -49.37153121 420.3004071)
(1929.245419 -258.7836461 -510.1985848)
(2110.443284 398.6014177 314.7917057)
(2005.662033 -217.3671709 436.0137002)
(1599.78328 79.0408897 -234.4928466)
(1736.013914 69.4271027 -110.5163719)
(1101.379283 423.7297514 293.7565209)
(2134.968841 502.4587415 -290.1839379)
(1675.098419 -334.2026475 366.4806946)
(2195.408343 -217.4352855 -328.3791493)
(1861.198385 362.5621213 628.1716651)
(2488.53733 -207.1671052 101.937168)
(2047.272842 54.16862466 -36.77743205)
(2011.204681 -233.7112501 246.0332806)
(1705.265073 -119.8872725 772.0378852)
(1789.840427 -583.7899636 -327.6594485)
(2006.533652 -174.3121497 148.8415851)
(2204.01219 -319.246782 66.59183775)
(1700.562617 -103.8650438 127.1839449)
(2190.257591 200.7027424 1.913696059)
(1341.706833 752.6283505 345.8748715)
(1741.557061 258.7032121 185.8438215)
(2096.16584 144.1799677 -436.9443925)
(1807.306806 -73.22321815 512.6033935)
(1431.157944 -631.5550877 30.89124531)
(2172.316722 532.2934822 -176.8226617)
(2080.822779 -76.32631233 169.775306)
(1905.960894 -7.423016618 -94.75071874)
(2097.58208 199.8533702 284.5391314)
(2141.423691 587.6565019 122.5671079)
(1850.615408 82.16426454 507.0552094)
(1848.502407 94.77680053 -92.91685561)
(2606.942166 -585.8292427 -45.42140331)
(1585.129184 197.8662051 -372.171552)
(1723.508817 -486.5962088 -191.3331061)
(1931.124024 420.0022092 262.6779547)
(2150.714168 38.39275308 -102.9944008)
(1866.71539 -385.3790716 -336.0111215)
(1983.753084 104.3883881 188.4975963)
(1992.773055 -83.5999404 -340.0591237)
(2275.879507 -9.481936991 121.8415835)
(2305.234372 -33.15287983 194.4126339)
(1901.949834 -91.67906031 96.01219807)
(1852.580223 639.19622 68.26966573)
(1697.288324 -103.8753514 596.7368453)
(1585.437726 749.2355249 485.8251011)
(1926.842298 -383.5912728 160.3028525)
(2059.610745 296.5055078 75.87154762)
(1800.030649 13.13702152 291.3382537)
(2130.175434 -56.2292099 707.0501557)
(1767.887895 77.66493426 -125.8614449)
(1584.731472 412.4855001 -19.14178056)
(1480.166217 -550.9886315 -269.6273233)
(2092.873719 -209.6777734 -334.5487109)
(2064.084212 -138.6057118 221.2306907)
(1971.538945 149.0120971 -180.2865069)
(2197.306975 -231.2291359 -134.0560741)
(1362.631589 136.2155192 -365.8601328)
(1841.436987 -204.6596603 -300.4737572)
(2130.426747 221.3897419 487.6445086)
(2016.079852 -122.3568952 31.76238938)
(2086.768232 -171.7865459 -173.2762191)
(2002.811576 66.5017446 295.4066984)
(2089.003493 208.663516 -132.9881459)
(1557.690714 -420.9236381 -316.6703218)
(1945.173064 -28.45660392 -34.59743753)
(1457.809965 639.1051618 552.8090603)
(2428.196759 -126.2736326 376.2112898)
(1552.963478 -12.05310581 14.06538558)
(2252.596426 -156.1079858 -421.8664863)
(1575.94041 -32.92216136 -30.47902556)
(2013.766535 154.8134928 -29.77860185)
(1730.122259 -482.3632834 368.607168)
(1825.138551 2.544551694 205.8047457)
(1527.684468 -83.68316621 247.7951546)
(1864.201498 584.0230268 104.6779325)
(2026.29779 270.6490836 -169.0103206)
(1671.233597 162.1666569 -257.5762984)
(1841.372635 -540.9003794 178.1693158)
(1736.863346 453.446515 48.23301763)
(1562.475529 -176.8598312 364.918899)
(2229.372126 332.6845752 -208.1662371)
(1716.935851 -26.99723629 -490.00832)
(1918.892581 -46.82978472 58.12931461)
(1802.843691 378.2067456 510.3081042)
(1800.563243 130.5755421 -29.99394216)
(2212.916246 -204.8093426 -102.4646954)
(1889.03493 -134.3776891 -375.294295)
(2128.315689 281.6227767 66.30549628)
(2528.81156 80.46627554 -453.0753439)
(1813.237305 -503.0254988 -115.9383207)
(1897.853407 -254.4864509 83.42145195)
(2035.120309 -79.80253456 -267.5458695)
(1415.652568 -168.9091733 842.925962)
(2399.582272 223.6434549 -294.9404859)
(2051.418575 166.7504153 -392.7115185)
(1640.429886 276.1435172 106.2450483)
(2138.681184 -244.2851901 -247.3874632)
(1976.544604 125.1213166 213.4811111)
(1504.913887 295.294809 67.11071561)
(1930.652973 379.7461143 224.1763815)
(1359.299977 144.9434783 448.3082966)
(2489.604854 -40.23173525 -126.7511581)
(2563.365498 70.59338999 -369.7931293)
(1747.879939 -86.71641307 -109.4041132)
(2489.125533 180.775088 -31.0241407)
(1688.881729 -13.96828705 261.5283285)
(1883.624763 -8.800737228 105.8356267)
(2171.873417 -16.36843105 479.4721856)
(1720.633939 210.9862429 458.1054063)
(2149.803351 432.0627112 -166.1313914)
(2082.696058 383.7912951 -114.6283625)
(1701.768552 -332.6908704 285.1959423)
(1853.319703 -287.5418501 -399.0997421)
(1858.00794 200.5768389 410.7008721)
(1380.462362 -441.6336137 -311.4730888)
(2154.564877 -595.6657867 -203.5880289)
(1387.828831 -413.2969771 -604.3953032)
(1533.152088 -285.2811671 380.4055157)
(1945.521661 691.703996 468.524159)
(1758.675044 -308.9573497 -147.0238379)
(1946.122959 205.5436848 149.3069303)
(2344.478091 -414.7877704 279.3283251)
(2245.365006 190.2152401 2.536618188)
(1912.588331 -187.9279662 -168.7351317)
(2269.830596 407.4642288 59.67961785)
(1550.444366 -72.34761736 -357.0031886)
(2447.995763 -310.759448 145.625653)
(1579.400938 337.0911837 -66.02590801)
(2423.526 196.9764394 171.1748242)
(2017.574492 375.0144324 234.9299908)
(2072.47141 295.0867367 245.2438932)
(1981.858249 228.9569526 246.6838853)
(1872.151068 97.81670242 -241.9157707)
(1761.769996 -347.6044553 -447.1854212)
(1803.461617 -10.24099443 378.3632186)
(1942.364659 -6.379052619 -54.12950481)
(2252.224532 57.05762997 51.35390842)
(2907.385692 -519.6504655 239.7692225)
(2036.824323 81.64093424 32.04496725)
(1739.184602 -71.95232116 -76.68182276)
(1948.092586 -245.7065258 -203.1825754)
(1806.778041 148.5040344 -69.34425137)
(2140.763637 -362.9850682 279.0520381)
(1517.064346 -45.19411532 250.6550396)
(1756.41019 7.645167498 -8.11366352)
(1542.94706 -284.648265 233.2156557)
(1536.164616 -330.045003 -232.651177)
(2030.561714 -73.63387569 -399.5744272)
(1643.166725 113.1035102 -529.961352)
(2452.28194 -170.1149752 -353.5462386)
(2040.078096 22.81661882 -527.8853198)
(2306.801011 -7.268367436 -139.2905782)
(2348.010624 375.3437197 404.4495315)
(2045.64694 -17.06162382 510.2193372)
(1624.407416 474.1733273 454.4532009)
(1824.522002 -495.0058999 -5.950941377)
(1887.26609 -564.3302234 -45.1208242)
(2161.999674 102.160659 274.306047)
(2035.094021 -440.8215789 138.9583198)
(1849.926212 -6.733204392 182.7483744)
(2026.683273 8.683178373 264.5154508)
(1738.124275 -63.65842522 324.249884)
(1774.588052 3.564604872 166.4954703)
(1791.075704 429.2382449 32.68247995)
(1539.717526 448.8249589 73.30764124)
(2655.14677 659.0398042 362.5457225)
(1903.677515 102.312466 348.6722019)
(1889.116337 -122.4937319 81.52758846)
(1786.294397 313.4443504 -540.3658295)
(1868.607112 -245.9132541 -492.9764049)
(1835.159798 -433.3755622 -88.43172511)
(2174.422035 18.74652525 -60.90541863)
(2134.899291 168.4385259 25.73418277)
(1759.886475 184.0411457 108.528082)
(2393.090216 -62.97360427 146.0252998)
(1825.349615 497.8755459 -15.37592589)
(1831.11742 -273.3449645 -364.7677243)
(1809.345781 -37.61319241 95.00241856)
(2150.320682 56.83866988 350.0576185)
(2356.318464 454.1275041 232.2166756)
(1834.882469 -136.9726415 -513.4048973)
(1872.70719 -219.2271723 -236.4248224)
(1642.626429 68.73929246 -96.4881966)
(2088.950007 738.4661303 2.295747126)
(1831.048323 20.89702705 -328.0538844)
(1613.377608 222.5902991 -298.792253)
(2082.948791 160.9198982 372.2624549)
(2390.985449 313.2024017 20.95092344)
(1815.718772 -102.4986296 -309.1636171)
(1926.079853 194.6508651 -463.8645696)
(1996.938634 -183.9104382 -399.0524964)
(1709.90447 165.91197 554.4459542)
(2210.865101 416.7908918 38.33087367)
(829.1539183 241.559741 121.9621854)
(2539.68067 370.5468795 -42.65189755)
(2084.590908 271.7900068 355.0437936)
(2034.728125 -28.13092171 -352.3527726)
(2106.098571 -113.9304519 100.8738615)
(2215.268243 175.5390111 -43.71952076)
(1900.779286 -240.5142241 297.5646066)
(2025.109265 288.3829788 419.5932818)
(1303.464409 -69.13562486 99.07971921)
(1829.011961 441.4504006 36.02231112)
(1353.03706 -205.6097563 -22.53164946)
(1952.030651 -505.1383152 -506.0779716)
(2218.225466 -152.4436662 334.7479037)
(2223.576184 176.462334 447.7587086)
(1895.210846 -145.5469508 353.37965)
(1738.149508 758.4253522 -482.5178194)
(2578.674882 -260.5328337 -62.76799964)
(1931.49026 -950.5622783 62.88372863)
(2442.617232 353.8611601 -160.8655111)
(2097.405595 115.381997 63.98344239)
(1744.493444 163.2144157 26.38577027)
(2003.192261 -49.77496755 414.7732181)
(1909.791361 690.308618 -61.03358217)
(1760.879969 372.8723435 -198.1009433)
(2133.653258 -287.505339 -36.88841879)
(1825.328172 -276.0693026 -95.05206962)
(2185.628149 -196.3285334 -428.2080328)
(1335.523498 610.4247555 -232.5979824)
(2016.161157 309.0940612 -152.1645611)
(2069.646806 -166.3198195 -252.754731)
(1496.66402 105.9006792 118.8350881)
(1805.262535 309.032348 195.5288342)
(1631.340641 -3.008146411 -43.72719664)
(1763.260435 241.4329844 242.6069478)
(2240.233251 120.8264447 317.7756964)
(2073.598729 321.7780745 314.8752189)
(1839.007158 369.263163 -332.7477334)
(2001.920563 -191.5652981 538.006968)
(2340.245871 284.667759 315.1422533)
(1864.438521 -169.0482177 294.6310613)
(1402.369108 -242.9448565 176.0677646)
(1984.444543 28.29383234 332.0570508)
(1642.324482 -346.3437175 211.6080411)
(2171.814495 528.9080723 -261.6506153)
(1633.415293 -434.4944878 229.4745558)
(2020.624959 18.09828224 78.75681582)
(2641.237628 245.3441962 635.5833691)
(1746.754885 -97.60793269 291.1418135)
(1742.870735 111.9158238 232.2578334)
(2602.746893 143.7053789 -443.6053152)
(1874.241539 -338.2164462 212.5246595)
(1907.053704 225.4500498 -413.6596852)
(1589.926631 124.6450542 -328.6774052)
(2200.785274 257.3668885 23.73838239)
(1868.15748 320.0636943 271.8220834)
(1859.655327 371.1601269 262.4043803)
(2487.101389 419.7246328 578.7149889)
(1857.937639 79.19305804 -542.0332869)
(2237.006316 581.1365942 539.2660818)
(1895.660631 127.308148 -309.0723609)
(1901.802095 337.87066 -137.5664851)
(2486.091803 -211.1251473 -243.5278118)
(1430.689627 564.7062372 100.0752315)
(1711.7891 -144.5781435 -277.3175391)
(1789.087886 -143.6848402 262.8457232)
(2356.426743 -139.9032697 -298.7209439)
(2282.085194 -64.2114465 283.0250324)
(2191.803297 -70.49289016 91.1530422)
(2101.778355 -136.9873738 -276.7266823)
(1439.00084 480.992547 422.3206461)
(1891.298711 -429.9089127 -22.60336291)
(1983.699454 -235.8115656 -586.3372112)
(1794.177571 -56.27643546 298.7604474)
(2256.738444 -179.4189267 680.8068451)
(2116.933377 423.4276767 -114.9386722)
(1890.045949 142.195424 93.53503167)
(1315.468961 151.0314278 152.2274179)
(2171.162201 5.829954817 145.2318226)
(2356.366843 498.7359815 -148.7257658)
(2275.043549 124.7640576 -190.8434516)
(1481.343491 77.56524035 108.8964544)
(2164.919748 23.40024784 87.37433556)
(1878.09546 -57.87571059 68.05683549)
(1459.608001 260.5223352 -764.3795941)
(1398.701822 83.04575361 53.2624168)
(2020.732988 129.2993893 -280.2847105)
(2267.83048 -277.7665993 45.52611588)
(1866.549921 305.8497966 -504.3359587)
(2167.093593 293.0197124 -63.30666594)
(1940.109409 85.2081225 -379.5430774)
(1612.016507 78.11865107 -95.39487154)
(1917.986008 45.45751033 -175.9263654)
(1931.542168 257.5125044 229.388685)
(2150.679606 282.0341514 225.9599628)
(1611.900751 169.0675649 61.97729746)
(1610.847874 29.35262461 58.47993828)
(1813.213052 -387.9101914 -93.47852035)
(1948.770912 -156.1554324 -168.7882007)
(2321.11164 331.4228458 324.536578)
(1937.89422 73.04925881 -85.05992526)
(1052.246215 -42.38355278 -128.2811839)
(2292.289996 -541.8802274 -195.6641017)
(2296.95675 34.91181897 -420.6702024)
(2148.749771 223.9017747 -130.9798668)
(1841.735355 635.4123734 66.69316772)
(1397.513028 -4.63679859 -523.4452881)
(1864.323131 107.0574887 117.1145874)
(1711.240788 601.0725923 314.4764408)
(1419.36519 130.9601876 -266.3209388)
(1784.394049 -885.4124358 18.67558501)
(2014.627346 -38.10531602 -34.50112305)
(1559.931325 422.2736646 174.0459404)
(2366.891228 -282.6721905 380.5493941)
(1959.701664 382.4793775 -389.4669468)
(1716.382258 148.709777 -47.62359643)
(1924.586825 -299.6551574 -294.0465326)
(1947.953061 -118.3026385 -76.65362834)
(2061.470394 -720.8980153 305.718611)
(1810.438162 39.16506447 130.213088)
(1741.966912 868.3362536 -485.5496443)
(1665.51757 -260.2372257 510.3758962)
(1752.502557 466.5032268 401.9221043)
(1905.385119 158.9670038 -55.86962544)
(1971.165151 -396.7967941 33.95216064)
(1627.62016 -27.99882366 -515.2209509)
(1765.403387 74.43865851 -228.6756904)
(1451.922072 -130.1836351 -87.66683135)
(2350.092874 -290.5941744 -170.1370715)
(1753.235026 321.2637497 451.1586853)
(1708.353593 -90.86308122 8.515106995)
(2586.61827 542.9787662 491.9020796)
(1841.376637 297.3394322 -153.5221361)
(1686.607266 -573.9070126 -1.785037541)
(2034.922288 64.56499566 -98.95325727)
(2360.143899 -839.8721221 164.8681567)
(1909.220945 -109.2334285 79.6976329)
(2207.927624 10.36226627 73.50525107)
(2169.087375 25.2325617 221.391001)
(2312.551608 131.3950473 -310.3631444)
(1884.750245 -863.4192639 -240.1861247)
(1828.83334 589.0198224 -191.1785632)
(1641.832423 285.0881225 166.0006532)
(1744.32522 -211.8165322 -51.44941505)
(2005.720615 -286.7916672 230.9424572)
(1692.578956 125.0517115 44.6285738)
(2009.662906 -53.02698757 182.428619)
(1833.612753 207.9486355 32.03548932)
(2108.341594 153.4872745 -257.6907185)
(1674.412038 84.24526835 -519.2039983)
(2073.984984 -48.39146852 -91.20295681)
(1826.996823 -162.7486181 558.9560826)
(1889.642353 -759.5293369 -281.5047658)
(2470.359311 52.5058872 96.48769609)
(1832.936839 -92.33105744 388.6132703)
(1654.085045 -319.0442004 103.5615601)
(2027.225525 395.3339323 47.71857328)
(1936.574346 330.0142753 -670.7050293)
(2329.793111 197.121552 279.1021339)
(2170.801495 336.8653756 515.0974646)
(2386.152895 -827.1832692 -283.6495884)
(1946.622554 108.4877689 -278.7580042)
(1992.626876 -19.52334643 398.9318063)
(1725.028632 456.0376182 422.5283214)
(2144.715531 -102.7211104 -433.9092402)
(1794.316985 37.4012048 264.1985845)
(2856.489175 -426.9717339 189.8833906)
(1324.17028 714.4308931 -158.2048806)
(1820.808001 -380.8511965 -83.76958)
(2039.977857 217.9758222 -105.9231792)
(1930.7123 -792.2734685 -373.0991207)
(2050.6099 -71.39310365 -61.14839723)
(2075.073761 221.9748615 37.2542069)
(2230.00944 127.545125 -32.85718944)
(2049.551542 166.5911163 -341.4842174)
(2351.11714 -177.0930513 -70.75756999)
(2288.398979 -617.369781 -488.287912)
(1812.618987 -53.74977173 -233.8587685)
(2200.370856 -11.1021222 -219.7030488)
(2063.459966 -416.1643471 -592.2535953)
(1911.239648 -715.3897037 -170.265767)
(1843.489633 838.891071 -104.886026)
(1687.439081 344.6383842 84.93031311)
(1623.054222 -38.64123988 -78.85191002)
(1228.615419 913.6973519 -471.3017541)
(1927.886596 -183.0684199 -424.8508779)
(1884.098509 -317.391023 -519.581682)
(1969.285261 53.77356662 144.1786534)
(1986.085829 -393.9348625 233.8130893)
(1906.547143 -435.9036482 -92.5576204)
(1737.82816 229.3091572 -167.6254633)
(2334.604006 636.9013629 173.0103525)
(1838.555275 90.85780629 332.8362565)
(1807.247142 261.3530042 -26.93023918)
(1965.116571 -275.8942102 -236.1074718)
(1604.714974 276.3948365 -182.1444904)
(2108.532885 127.7715563 45.75150734)
(1606.39701 99.55523377 39.86094491)
(2208.642149 -193.4337829 -129.0757104)
(1693.132713 -62.13588454 473.2377966)
(1812.988755 -210.5170072 310.9178536)
(1524.113352 349.3219881 -188.4516428)
(1657.981353 354.0850079 240.047655)
(1787.065062 10.31471141 -402.1770069)
(1711.523418 -162.8656073 23.80951803)
(1410.430191 102.9628689 150.8293554)
(1863.583291 383.5221943 -191.0682204)
(1779.918735 -198.6641866 289.4306037)
(1908.82934 -793.7013965 -81.29195477)
(1587.178287 -444.292206 237.7007585)
(2152.618052 -93.18965894 -211.1599647)
(1725.092591 309.8497409 242.4585345)
(1803.856069 298.6610009 815.0179961)
(2022.019346 451.7287467 172.8247142)
(1853.360154 65.3855948 131.5183567)
(1770.968028 362.623813 -112.7550327)
(1758.005648 -305.0956158 359.8938481)
(2542.762865 194.3000558 -222.5539622)
(2065.98061 -624.8365461 173.0204401)
(2480.834836 351.1301265 336.2121212)
(2473.677089 221.7369224 -432.9861444)
(2021.207023 301.2876546 -372.631552)
(2010.870436 -192.545972 58.3337158)
(2307.063853 57.84122034 144.1259993)
(2140.675218 -105.7125358 -253.2396555)
(1724.345589 -230.3504256 165.8779395)
(1983.341624 159.8672165 171.545291)
(1951.118373 -17.53395574 -145.8723872)
(1755.758245 458.4899321 360.5281761)
(1723.565947 464.3394715 -12.60282706)
(1821.180986 72.54659028 84.26546627)
(2294.417679 -66.38654717 146.3521104)
(1931.994254 154.8549536 -335.5996232)
(1779.922758 -221.4150293 -144.2474149)
(1882.995256 53.74473694 434.8567285)
(2038.875389 230.8573026 467.4858867)
(1844.596471 -189.2778574 -248.4960089)
(1735.284972 -97.35914447 -495.1095743)
(1956.572411 208.1324077 129.5925469)
(1507.429963 97.48055703 -159.2553456)
(1893.23518 -201.575891 -123.0809792)
(1490.885845 405.675092 -397.9934125)
(1852.389908 167.3983885 -271.0657971)
(1172.947996 -522.2114983 264.4131036)
(1561.824913 245.9698777 -19.72619203)
(1822.78211 -49.87977778 -432.7588763)
(2106.980629 268.8188447 281.8359602)
(1754.644325 -101.5684596 -13.73431829)
(2514.120516 -61.59827168 14.64193932)
(2285.988231 404.958256 148.031738)
(2147.062617 -37.77076461 277.9207075)
(2137.769143 289.7215557 310.0770179)
(1570.002572 -212.9985403 259.2587301)
(1631.516504 633.9629684 443.9311008)
(2420.960612 -294.8758329 416.0290674)
(1953.074761 217.9605457 97.06541791)
(2250.691235 267.2191981 272.8521808)
(2246.683873 100.1611337 -59.63059811)
(2251.592526 437.0115873 412.2071665)
(1613.630352 -551.8603219 162.3294504)
(1692.083778 -310.8191207 403.4089214)
(2181.353688 91.91865497 136.8272166)
(2057.724904 513.7045659 360.2432465)
(1658.539771 326.4046495 146.5878258)
(2141.503016 -574.1745718 8.527777085)
(1538.913213 -19.38960106 223.5843983)
(1656.999564 43.74502828 -140.6070998)
(2216.777602 -27.95185599 125.6733536)
(2186.186833 -164.2616953 -44.59129337)
(1848.328204 278.8776418 -302.2855949)
(1899.935822 -145.9318937 409.8628077)
(1684.660812 41.73965078 89.16079849)
(2168.407705 -323.1573872 -665.2164375)
(1851.914557 349.6399837 137.3144758)
(2178.09571 -99.76534296 766.4746353)
(2166.760616 -133.3542322 187.2799463)
(1798.931255 -277.9144416 -141.0681255)
(1987.030069 -42.84993016 534.5317414)
(1745.18432 -346.85796 61.66214535)
(2045.130819 -465.041081 87.26375237)
(2359.987298 570.0091855 -364.9111158)
(1634.869043 760.4197095 -81.19452238)
(2071.660979 384.21578 -558.7176253)
(1997.870924 -17.79156172 -295.5179015)
(1515.498743 -71.72091079 -323.0861997)
(1990.846087 528.2079692 -325.3900257)
(2028.641722 -11.66988878 -239.7590565)
(1820.305274 -364.1152897 -190.8300077)
(1961.802325 -97.68681209 12.60812866)
(2277.964282 -26.17869383 -71.23562083)
(2245.266427 -239.2694149 -115.8223422)
(1882.826666 110.5322642 -219.5011252)
(2025.476861 -66.84484332 255.8348228)
(1857.224719 602.2490848 -444.7255508)
(1574.214391 82.995526 -233.8317881)
(1398.172218 27.20862917 -441.8971058)
(2274.44675 17.25715946 -231.0349075)
(1530.07627 311.2128268 252.4999032)
(2122.57582 47.15145358 -169.8808043)
(1758.229681 240.0503713 111.4415971)
(1845.716013 -849.1396665 231.2736218)
(1889.936761 85.91950357 -301.5024381)
(1976.810594 -471.3645907 199.0418919)
(2272.163816 219.607722 -138.4215004)
(1740.730147 -287.2083739 140.6222888)
(2444.581548 289.6384351 26.49661426)
(2104.747578 291.11395 -85.72957175)
(1846.349845 -387.6210334 438.8513046)
(2009.016547 168.7125459 -294.13563)
(2174.331916 -170.3353352 7.423863374)
(1452.006951 -17.91064412 -622.6279094)
(2723.590152 361.8450872 -2.32621696)
(1866.517644 3.752205039 -257.555927)
(1920.256172 356.4616767 17.92243535)
(1688.14934 -131.2730144 -156.4310117)
(1834.065832 -247.5671066 148.8634018)
(2021.692448 -303.2415141 -402.6130097)
(1812.791694 -304.0605959 193.0082968)
(2043.175752 -299.8951522 124.246798)
(1289.245632 -19.88250999 90.06346713)
(2020.920188 -324.2065005 132.098936)
(1833.124585 -337.8930705 131.0548965)
(1982.732994 8.910378268 -148.5805004)
(1778.110745 19.04296571 -76.76889218)
(1441.401295 -196.9102217 329.7859144)
(1976.151279 -224.4678112 -109.968609)
(1972.231383 -92.53274891 -153.425057)
(2160.209004 -177.1899379 -202.5477709)
(1515.450341 -130.5713585 -255.529466)
(1947.802526 235.2514555 188.929866)
(2030.0805 162.8763741 363.7474736)
(1338.943658 103.0755962 28.65202289)
(1528.542201 372.4119939 -162.2086245)
(1895.987796 -603.2583034 -137.6426961)
(2386.888025 -496.1623213 -133.7844491)
(2384.155844 -59.88187554 -71.27199597)
(2458.056948 -75.49728741 -45.5457533)
(2617.918709 -116.1319457 75.16808202)
(1825.182575 302.793389 46.75226638)
(1682.367156 264.5968683 -331.4570881)
(1087.877947 -340.2376653 -262.1417616)
(2138.266705 -229.8061789 -472.96099)
(1489.988644 -350.9629465 -498.8739105)
(1799.019103 -244.9597228 90.12005149)
(1987.351595 97.12278483 59.33945246)
(2117.720852 346.4208619 579.0137606)
(1838.968159 458.9706091 -150.7662053)
(1964.885011 -478.6823303 -114.7611514)
(2253.269561 424.9504948 16.37728323)
(2020.315759 507.2232021 -97.94080512)
(2074.734267 84.44776036 -246.8705184)
(2372.763254 59.50849601 117.3609889)
(1557.62733 220.7973681 416.500696)
(1619.066796 -145.1247204 434.8344186)
(1799.045779 -66.3520484 -479.747188)
(2965.7603 118.1124072 -399.1443723)
(2275.992632 -38.24045695 138.0877259)
(1919.03163 -594.2022566 -116.1047546)
(1796.532036 44.78807667 -209.7593764)
(1409.383613 -8.347785655 -141.917997)
(2129.209295 221.1736494 172.2834969)
(2013.71188 -250.9455511 -370.1178373)
(1894.467426 -207.7258179 -73.68653061)
(1704.356655 57.89352593 586.4205332)
(1857.986804 -240.8790099 346.0468212)
(2185.03302 -222.9606436 169.8923737)
(1828.197523 326.1237463 84.84426754)
(2163.147377 14.61724031 -110.3971076)
(1866.871769 130.2732972 -329.1994423)
(1849.948633 431.2655964 -81.37582987)
(1507.056005 -40.33343438 -164.6127395)
(1641.078059 85.82753554 -12.79394145)
(1493.380148 -736.4630138 193.0189199)
(2196.413161 236.0485644 -127.9641009)
(1793.286105 229.7673501 174.702711)
(1876.450614 -134.7796811 362.7930377)
(2020.981745 -95.45668949 363.7780803)
(2153.242068 615.7017676 112.8499698)
(2175.301751 55.87406899 210.4950959)
(2161.70981 80.07265428 -350.8886567)
(1691.352529 -5.472765507 -167.1864899)
(1927.616105 -52.58149942 -87.50067782)
(1525.983789 133.3555024 -209.6830099)
(1460.225814 0.02272100509 -281.5223075)
(2445.627806 -457.4925281 486.0180481)
(1879.096581 -74.15088672 -197.395685)
(1857.920893 148.7891147 666.2824935)
(2013.965757 -209.8033801 225.9012631)
(1774.176042 200.703981 -517.2664776)
(2062.009062 -9.655104189 3.82289933)
(1775.673526 55.91969069 -218.9817009)
(2375.960191 -120.1073988 -54.01302683)
(2391.92046 186.5877588 -43.18372916)
(2635.815501 -72.83096809 -132.8988367)
(2396.699077 417.756723 -46.35478055)
(1872.59647 -62.82137235 -292.6144683)
(2167.908775 620.9698205 209.0584001)
(1886.839465 259.9113385 -16.83105021)
(1839.498502 83.4908569 338.2683717)
(2218.390746 130.2274672 -152.7165573)
(2267.796399 -238.1333073 -288.579166)
(1658.259008 274.9345981 414.4833751)
(1895.840008 -50.20129772 -37.7909315)
(1976.567051 274.4797808 328.6353835)
(1592.179272 107.8768605 409.6062158)
(2464.815746 -268.0047792 139.8337797)
(1699.174465 -139.6781279 427.0239481)
(1993.236692 401.9620659 -41.98428116)
(1645.810396 124.0334902 269.1211129)
(1431.435357 31.83043429 261.9845333)
(2428.464337 -824.6309962 179.5300425)
(1977.338952 136.38295 13.1621254)
(1752.354623 -557.9106317 -80.01660037)
(1919.748204 -257.1157404 321.036926)
(2134.029838 -380.0007775 106.2288991)
(1433.61834 -223.1055327 329.3482566)
(1997.568318 140.4681415 -8.260966052)
(2053.655958 -256.5391047 210.491932)
(1858.392425 233.7676701 270.8596807)
(1827.879224 -280.4008569 99.03659461)
(1802.720201 49.77151652 -327.4433228)
(1720.692385 -146.932797 17.47979176)
(2054.790974 286.0782648 229.189864)
(1989.458921 176.8760605 221.6457607)
(2204.084509 141.0279232 -313.8218997)
(2019.886819 -326.0803927 -886.9712758)
(1976.579568 167.231232 285.7676009)
(2095.861523 622.4701876 -420.9870938)
(2336.699597 -630.2629328 305.9336579)
(2226.692255 -73.31170572 -409.8246418)
(2177.947469 -17.71387562 -255.7465822)
(1786.843286 -445.2802315 106.7426274)
(2098.626005 215.1097645 -142.0031586)
(1728.068568 -523.4921204 -93.87943187)
(1855.904754 289.8152718 42.73394727)
(1690.571841 -219.6502929 148.3369153)
(2238.671647 -189.6804598 -296.5705529)
(1712.855024 479.4131022 -210.4805352)
(1535.361453 148.8533432 86.66347615)
(1802.386056 31.07012622 -59.83232114)
(1837.118367 -119.7536012 157.672009)
(2344.968629 -344.62864 -96.94259376)
(2214.723413 98.35935711 -340.8478973)
(1529.378963 -69.84924174 -4.991699712)
(2209.931088 173.1319159 365.4476551)
(1471.645028 231.8628723 -147.8150928)
(2058.509836 -32.18542127 -210.095095)
(2125.442333 247.777799 184.0017392)
(2055.817703 233.3089408 -65.66684955)
(2249.392595 -140.3741608 -159.6115135)
(1608.187278 -285.6023766 -619.2389645)
(1885.376644 -261.7724574 -414.8627903)
(1445.215604 10.68465163 167.5094163)
(2598.894448 -218.3764164 -365.1022458)
(2360.991708 -465.8367615 532.744558)
(1770.596429 -135.0859861 125.4049649)
(1731.56559 289.2146601 -282.4087391)
(2063.801499 -441.1794339 -62.04971309)
(1828.210447 -104.7703417 265.7737206)
(1457.478709 -242.8895458 -200.2110921)
(2483.630267 123.8000291 -444.9309267)
(1868.166511 -37.34073832 -463.5409719)
(1871.872785 -353.4560535 -360.9969105)
(1969.482555 11.82581351 -240.9494423)
(1593.214213 102.440997 -792.1249159)
(2056.68346 -280.9609256 119.3612285)
(2205.291164 371.2491989 162.5135853)
(2333.252816 -218.0819582 97.73173155)
(1953.747527 -70.73474632 175.8126285)
(1706.793361 45.82266651 260.6997179)
(1371.735419 -124.2647729 205.397693)
(2023.519697 -406.0792697 7.719447916)
(1848.740036 -181.887572 290.6059094)
(1846.159323 -733.0168128 175.4892466)
(1874.118847 -215.3574183 606.8812816)
(1776.757966 161.8206399 213.279778)
(2634.230002 -79.29562838 -94.98561808)
(2106.299275 -362.2299362 728.4753011)
(2513.444097 592.9213536 -467.6388765)
(1708.013854 -119.8291016 75.13989724)
(1790.245218 -633.2274478 -55.21699513)
(1717.507744 72.14648171 -371.6409036)
(2527.392238 -22.73930479 135.5194844)
(2280.635617 291.8647068 181.7228719)
(1812.029013 -152.1480694 66.14215229)
(2106.726709 79.36499624 92.92702015)
(2230.054294 42.8306949 238.6829962)
(2294.11089 -271.0047257 -368.9735011)
(2015.435429 -343.4993125 -77.13478727)
(1862.804475 97.32018397 -2.653273632)
(2308.092687 -302.8066325 -424.737072)
(2020.507031 91.63815579 112.4771228)
(2088.738751 -287.2809642 153.2360254)
(1811.742851 -47.30788933 99.10334036)
(1656.643816 136.8711996 45.68783773)
(1560.912244 -360.8406268 -257.9470557)
(1531.544299 328.6325348 584.9321953)
(2372.275977 -283.8641062 -81.28645132)
(1752.535797 61.75642366 73.33111184)
(1852.079843 -375.0365932 156.7543641)
(1939.006036 -128.5155936 -12.35126074)
(1714.963254 -185.0023222 362.9365104)
(1763.767788 -245.7909938 9.421542863)
(1939.291758 -217.3396514 37.65070997)
(1942.917845 60.82318332 -403.9161074)
(1609.71386 84.26132198 288.1765599)
(2238.820919 139.3865007 2.47423307)
(2276.144522 -598.7429128 -42.86666487)
(1603.411203 67.36189016 552.505087)
(2050.944574 676.1287943 202.9687843)
(2152.233851 502.5299214 -95.05297216)
(1424.214422 -205.1204063 176.7171248)
(2434.818216 -296.8261459 -460.7587077)
(1804.867043 -195.6223173 -209.1110592)
(2119.143928 -43.00077456 -79.81403955)
(2055.88352 158.7758969 -116.913717)
(1847.406403 -212.788955 -76.6454128)
(2310.91421 -185.8447532 -177.5278463)
(1980.71408 387.6104611 -22.23168747)
(1527.775121 -68.23687596 414.7304016)
(2067.858205 423.9423487 91.58816988)
(1656.611113 88.61262438 -183.3983986)
(1931.347543 89.50849253 30.0643227)
(2042.439252 -107.758405 173.8889583)
(2096.810072 181.7534907 130.2052089)
(2021.04345 -12.49373223 281.5515644)
(2178.323425 42.86398145 -445.7490611)
(2029.171129 179.2044702 -282.5350561)
(1716.800841 -7.767344961 -38.74479389)
(2019.745562 380.5735488 -75.69446619)
(1861.322382 -84.28628826 598.6247386)
(1440.602449 9.590656866 381.6336878)
(2133.622064 -41.80306967 -381.4109663)
(1814.867012 182.475782 556.6985583)
(1734.046543 -306.1537599 63.73214666)
(2124.652639 -84.62748313 -166.1358151)
(2048.493518 585.0310836 85.99975427)
(2025.310872 93.52221475 214.9468324)
(1614.251507 161.0864243 -85.80200024)
(1942.715446 278.9844726 -17.09166306)
(2273.88468 10.01432593 -258.9464362)
(1855.084749 2.928803642 481.2092772)
(1859.853255 -238.0637381 -287.2124834)