/*--------------------------------*- C++ -*----------------------------------*\
| =========                 |                                                 |
| \\      /  F ield         | OpenFOAM: The Open Source CFD Toolbox           |
|  \\    /   O peration     | Version:  2.4.0-MNF                             |
|   \\  /    A nd           | Web:      www.OpenFOAM.org                      |
|    \\/     M anipulation  |                                                 |
\*---------------------------------------------------------------------------*/
FoamFile
{
    version     2.0;
    format      ascii;
    class       scalarField;
    location    "0.001/lagrangian/dsmc";
    object      ERot;
}
// * * * * * * * * * * * * * * * * * * * * * * * * * * * * * * * * * * * * * //


64126
(
1.77711797e-21
1.244022962e-21
4.45451256e-22
3.863845572e-21
1.24080808e-21
1.596995746e-21
2.243407959e-21
4.675071986e-21
3.02626587e-22
1.371655243e-21
1.538253528e-21
3.497423355e-21
2.356111402e-21
7.954145788e-21
1.017846576e-20
2.559379016e-21
1.170929484e-21
2.121817032e-21
8.815530897e-22
4.343511885e-21
1.962597845e-22
3.049683883e-21
9.636378393e-21
4.973859156e-22
5.735534352e-21
7.798094213e-22
7.379315387e-21
4.302120917e-21
2.101145119e-21
3.450010692e-22
2.635011685e-21
1.895068734e-21
1.688611568e-21
1.009959112e-22
3.091205177e-21
6.459981309e-22
1.256391122e-21
1.494683148e-21
7.084305221e-22
8.384890146e-21
3.102401705e-21
2.215202087e-21
9.027862328e-22
1.630274004e-22
5.205019169e-21
4.424697802e-21
1.453416704e-22
1.148754048e-20
4.101144535e-21
6.524336797e-21
2.149737495e-20
1.393789084e-20
1.008115362e-20
6.028513855e-23
1.012923256e-20
3.56064939e-21
1.46708364e-21
2.952539553e-21
6.603330912e-22
3.888174834e-21
1.211798704e-21
1.172578865e-21
3.387542971e-21
1.470042422e-20
8.687579054e-22
6.621650665e-21
6.009843126e-21
4.174318117e-21
3.180997323e-21
3.581206637e-21
3.101100239e-21
4.146518288e-21
2.323602791e-22
4.012546333e-21
1.108522476e-20
1.184716204e-21
4.693930509e-21
4.07049677e-21
1.443452564e-21
9.610075328e-21
1.153404601e-21
2.133879065e-21
4.746615535e-21
1.435197819e-20
4.897314803e-21
7.697805668e-21
5.00081653e-21
1.263234035e-20
7.272513161e-21
6.699365495e-21
2.938270291e-21
1.117834329e-21
6.905968491e-21
2.462841059e-21
1.642796183e-21
4.814721096e-21
3.046441098e-21
4.23230177e-21
8.391314624e-22
9.569527487e-22
1.358786809e-20
3.161787989e-22
7.788861882e-21
5.794111786e-21
7.279987693e-21
5.060339592e-21
1.523986228e-21
2.020351329e-21
2.91090988e-22
3.258936856e-21
1.322434794e-22
1.528301182e-22
1.075957319e-20
4.941105711e-21
1.521511328e-20
6.671329693e-22
1.602528967e-21
1.210203648e-21
2.280629754e-21
2.854839425e-21
1.248249021e-21
4.65337668e-21
3.288275245e-21
1.019115893e-21
4.682057842e-21
4.446021198e-21
2.06407955e-21
2.219140394e-21
5.104334114e-21
4.129966996e-21
1.843921882e-21
8.750481965e-21
1.868706806e-21
5.588730444e-21
3.375329989e-21
2.625531495e-21
1.539014492e-21
7.088342939e-21
1.748822286e-21
1.033874842e-20
3.912649102e-21
1.75872491e-20
4.173669466e-20
3.71123352e-21
6.861154082e-21
8.307895204e-23
8.622300405e-21
3.123318074e-23
3.117576264e-21
8.635507903e-22
8.651628611e-22
1.159495565e-21
1.258448977e-21
2.883080766e-23
6.730076444e-21
2.730677968e-21
3.528449695e-21
2.538850256e-21
1.632716252e-21
4.363209441e-22
4.711112478e-21
1.106730532e-21
1.130493872e-21
1.17371542e-21
4.166065821e-21
8.151804113e-22
1.010211912e-21
4.820473395e-21
2.510227003e-21
1.134348692e-21
3.048422403e-21
1.161209298e-20
9.21693978e-23
2.097992055e-21
6.49824473e-22
2.61500671e-21
7.940899125e-21
2.313972979e-21
2.026251963e-21
6.865711437e-21
8.383141381e-22
1.71275101e-21
3.526023265e-21
7.255791204e-22
3.003942134e-21
1.279982093e-20
1.757115757e-22
4.225233782e-22
1.950830377e-21
2.297479928e-21
5.85989996e-21
2.994180802e-21
1.384535072e-21
1.83843458e-21
6.438508029e-21
5.577658703e-21
8.374763249e-21
5.754682215e-21
6.584859561e-21
5.429284841e-21
2.693727012e-21
4.795356647e-21
4.660992409e-22
2.483241791e-20
3.194274002e-21
1.613354631e-21
6.425108588e-21
4.394784224e-22
4.768812944e-21
7.778471368e-21
7.047676103e-22
6.07461981e-21
4.659678822e-21
3.95729168e-22
3.138367975e-22
3.440462436e-21
1.117050804e-22
3.361839548e-21
1.39856886e-20
2.539260663e-23
9.121292796e-21
9.197963793e-22
1.911728688e-21
2.266622719e-20
2.127968522e-21
1.646162831e-21
4.103741468e-22
4.202778972e-21
7.417839511e-21
1.569247188e-21
2.208740645e-21
1.992424508e-21
1.896364318e-21
1.241344765e-21
7.202441301e-21
5.320153855e-21
2.311321907e-21
4.259351988e-23
7.335951627e-23
2.968816137e-21
3.833506057e-21
4.352970286e-21
4.901124775e-22
2.492328361e-21
4.461924207e-21
4.16117617e-21
3.133578294e-21
3.914911123e-21
3.595501137e-21
2.325003948e-22
4.425126766e-21
5.738089459e-22
6.994798137e-21
1.841410693e-21
2.825704462e-21
8.043713209e-22
3.1628365e-21
4.870130567e-21
7.392297286e-21
5.207381192e-21
3.101317469e-22
4.149157312e-21
1.866696133e-21
3.272259384e-21
1.7020801e-21
1.378677545e-23
1.013404834e-20
4.757961051e-21
2.909457334e-21
1.065559123e-21
2.044939278e-21
3.721553144e-21
3.220989414e-22
3.700114723e-21
1.816776682e-21
1.076301156e-20
1.028800711e-20
5.540573086e-21
1.784703945e-20
3.252301325e-21
1.30187264e-21
1.438485688e-21
5.197134285e-22
1.64069342e-21
3.617218033e-21
9.770270518e-22
2.999841785e-21
5.001726983e-21
4.155238134e-21
1.329336894e-21
8.804618088e-22
6.855514554e-22
1.623090437e-20
1.953648244e-21
2.777305938e-21
1.205053779e-21
5.238323254e-21
1.410202777e-20
2.660614246e-21
2.837106191e-21
4.803917719e-21
4.527595709e-21
1.064250364e-21
3.132354704e-21
2.688476863e-21
4.834834707e-22
1.871849094e-20
5.603003608e-22
1.555814512e-22
5.914719772e-21
5.36854161e-21
3.550801693e-21
8.293932739e-21
7.568409244e-21
1.284603878e-21
7.838568525e-21
1.145468856e-21
5.558216741e-22
1.230132976e-20
1.641032734e-21
2.872690093e-21
1.42862028e-20
5.398511937e-21
3.303535585e-21
1.984361289e-21
2.409014408e-21
1.863922405e-21
4.704731355e-21
1.555460727e-21
6.1516695e-21
2.952487539e-21
8.546160452e-21
5.015730851e-22
2.931858786e-21
9.814542309e-21
3.679811988e-21
5.523462726e-21
7.953837273e-21
9.468085515e-21
2.651527277e-22
8.565639659e-22
2.561114408e-21
1.0116449e-21
5.446028056e-21
8.669905016e-21
3.539669981e-21
2.652987397e-21
2.353826897e-21
3.201898741e-21
2.229364694e-21
4.233556161e-21
3.335690178e-21
3.244008729e-21
3.59515209e-22
1.01705596e-21
3.192907014e-22
4.529579478e-21
6.693461818e-21
2.191838799e-21
6.723545113e-22
2.907518926e-21
1.587061968e-21
2.927576322e-21
5.591494381e-22
2.792559296e-21
2.026063899e-21
3.167388587e-22
2.574864212e-21
9.426265128e-21
6.397301853e-21
1.422075415e-20
5.232920824e-22
1.021146601e-20
6.751667645e-21
2.193046787e-21
5.591856755e-21
1.218061343e-21
5.575440195e-21
1.217900322e-20
3.92372381e-21
7.451644955e-22
6.318714358e-21
8.238508534e-22
6.753362275e-21
4.393269252e-21
3.799875167e-21
2.31358571e-21
5.336902386e-21
1.270809528e-20
6.280256724e-21
5.614944531e-21
3.008918005e-21
1.347911826e-21
9.009973852e-21
6.857442696e-22
1.938768829e-21
2.656798504e-21
5.317842616e-23
1.892363096e-20
2.179161624e-21
1.697135192e-21
3.031250655e-21
3.384235288e-22
1.516965298e-20
6.940693352e-22
3.546108102e-21
1.759876238e-21
4.859746301e-21
7.729654745e-21
6.109054913e-21
7.755429817e-21
1.841276842e-21
9.300966364e-22
7.668449193e-21
4.263028323e-21
3.635953721e-21
5.316427864e-21
3.568034302e-22
5.440906915e-23
6.588091741e-21
1.314083571e-20
1.607814984e-20
7.222533443e-22
5.784848672e-21
5.105317142e-21
1.256919551e-21
1.615421448e-21
3.825496674e-22
2.763404839e-22
1.040350812e-20
1.6285163e-21
1.331600795e-21
2.97806453e-21
2.269003807e-21
4.406456763e-22
6.796045639e-21
5.464417333e-21
6.199314923e-22
7.357140431e-23
9.52110375e-22
9.492947514e-22
2.530829661e-21
4.65688695e-21
3.309556741e-21
1.747466991e-22
3.346249019e-21
1.265157857e-21
1.08128957e-21
9.488757534e-21
2.427402651e-21
1.258457488e-21
2.177064337e-21
2.812557121e-21
6.846665924e-21
1.768598516e-21
1.179057886e-21
3.493938103e-21
7.430973085e-21
2.207291498e-21
4.939551624e-21
3.376442318e-21
4.138301646e-21
3.784782107e-23
4.692288825e-21
1.346695798e-21
3.481531604e-21
3.515443025e-21
9.617056251e-22
1.302760149e-21
2.880699028e-21
6.560152384e-21
5.272082357e-21
6.228938228e-21
1.665313844e-22
1.015728238e-21
3.810458893e-21
1.22810755e-21
3.291444864e-21
2.881261113e-21
4.152181049e-21
1.607568415e-21
4.554081546e-21
5.962388924e-21
2.539696132e-21
7.760708035e-21
1.014826901e-21
5.910951285e-21
8.122748652e-22
6.577494696e-23
4.081407311e-21
3.843874305e-22
1.737793348e-21
7.926416241e-23
7.153667528e-21
8.697579522e-21
1.368661262e-20
2.702249118e-21
1.304857193e-21
1.885312509e-21
5.812025866e-21
7.543948397e-22
5.264923022e-21
5.665295288e-21
5.46009186e-21
2.04136363e-21
3.193481168e-22
3.423520622e-21
6.166391305e-22
5.398203061e-21
2.271141078e-20
8.545377849e-21
1.599006339e-20
7.070109167e-21
5.202253638e-23
2.149642127e-22
8.286314016e-21
2.841298729e-23
3.784765764e-21
3.909058045e-22
2.131141262e-21
3.44783713e-21
1.265964342e-21
8.101520672e-21
9.025518117e-22
1.490160778e-20
6.269982268e-21
3.464331056e-22
6.055761861e-21
4.768265856e-22
5.323811453e-22
7.091819244e-22
1.170506809e-21
8.327678128e-22
8.189538125e-22
1.917169256e-21
5.117186339e-21
7.439430508e-21
5.974825381e-22
2.756894045e-21
5.534720074e-22
4.908984582e-21
6.862003222e-21
5.346681344e-22
1.487866782e-20
1.730715379e-21
5.723900239e-21
2.05525458e-21
2.018460083e-21
2.841001959e-21
6.740790828e-21
8.801840056e-21
6.263308438e-21
1.657517247e-20
5.110518873e-21
2.85307216e-21
3.04215366e-21
1.6897137e-21
3.050927832e-21
5.141341616e-21
1.372674597e-20
7.938115652e-21
1.782174241e-21
8.863388162e-21
1.263496331e-21
1.517905661e-20
7.956912842e-21
2.290675453e-21
1.143387174e-20
1.248466629e-21
8.892840735e-21
7.412409212e-21
1.01361854e-21
2.51190048e-21
6.81558559e-21
1.025760122e-20
2.727138274e-21
1.017281811e-20
3.421979697e-21
2.189963528e-22
9.366691077e-21
2.646527895e-21
7.175183843e-21
5.016136102e-21
4.418282983e-21
2.258004719e-21
1.093119903e-20
9.010445558e-21
3.454599531e-22
1.012816189e-21
7.511297549e-21
5.803440327e-22
1.312017305e-21
8.313208585e-22
1.188015437e-20
2.081637379e-21
1.781931093e-21
6.20666016e-22
5.007691825e-21
4.873505805e-23
1.65802959e-20
5.162691677e-21
3.170749056e-21
8.913498584e-22
2.02225853e-21
6.449628374e-21
6.734588984e-21
4.640795157e-21
4.625286565e-21
3.786163545e-21
8.543759067e-22
3.010960534e-21
6.195372304e-21
4.402702319e-21
1.505355402e-21
3.301822219e-21
7.593025021e-21
5.36978688e-22
1.810746882e-22
9.791676885e-21
2.452817805e-21
1.050554536e-21
3.445038442e-21
4.986189184e-21
4.872620699e-22
1.3616787e-21
1.716748452e-22
5.613550988e-21
1.649825284e-21
3.170766886e-22
4.285736259e-21
4.769143303e-21
2.787268336e-21
8.756797809e-21
1.943669868e-22
3.434729068e-21
1.129629482e-21
1.109980545e-21
1.787644728e-21
1.563966969e-20
4.288134671e-22
1.023569756e-20
6.400466506e-21
2.544982481e-21
6.757517252e-21
5.476549258e-21
2.091212025e-21
4.162471929e-21
2.705097601e-21
5.960493578e-21
1.047145437e-21
8.936089243e-21
5.755999417e-21
4.203449527e-21
2.101686183e-21
8.565596417e-22
1.676930942e-21
8.668091161e-22
6.011609691e-21
7.196498231e-21
7.462690292e-21
1.379049143e-21
1.034040904e-20
2.78594508e-21
1.144009883e-21
1.114795141e-20
1.056649283e-20
1.297575067e-20
1.639447283e-21
2.494106646e-21
6.054681075e-21
3.544498351e-21
1.994238932e-21
7.225739991e-22
2.83163332e-21
2.716880928e-21
1.195386402e-21
2.106345812e-21
3.139684937e-21
3.185579188e-21
6.588950408e-21
5.251500011e-21
8.187069599e-22
1.744601288e-21
4.935173302e-21
1.670836872e-21
1.346495431e-21
7.375189244e-21
7.196634793e-21
1.964181773e-21
2.099828101e-22
7.036335102e-22
6.834119547e-22
3.13694097e-21
1.466918057e-21
5.19716803e-22
1.208507829e-20
6.131963573e-21
2.810240498e-21
2.05013394e-20
5.841955877e-21
1.08891601e-20
1.547205058e-20
1.98320419e-21
1.535437304e-21
2.107868317e-21
1.038097468e-20
1.380286694e-21
7.106858129e-21
4.316166575e-21
7.940683227e-21
5.582926287e-22
1.112191282e-21
1.54141201e-20
9.198910499e-22
1.100088753e-21
3.520566618e-21
5.947652921e-21
2.102484283e-21
2.67493981e-21
2.630935594e-22
2.36797719e-21
5.930844286e-21
7.347862537e-21
1.327259853e-21
2.105359078e-21
3.497533722e-21
1.478998663e-20
1.789268242e-21
3.248736982e-21
1.186725644e-21
5.747735554e-21
4.190881065e-21
4.277337597e-21
9.988788229e-21
1.407199462e-20
1.908096152e-21
7.953988432e-21
6.852789778e-22
4.172944639e-21
7.018824313e-21
1.283979056e-21
1.376605756e-22
3.353629058e-21
3.838475722e-21
4.00966587e-21
4.849788688e-21
9.138339533e-22
6.21348578e-21
2.549418349e-22
3.176358675e-21
3.144527822e-21
1.49943583e-22
5.091542238e-22
2.477132643e-22
1.236309178e-21
3.157273303e-21
9.172369889e-22
3.431302774e-21
7.327557373e-21
3.927965709e-21
3.809878452e-21
9.677845196e-21
3.558826133e-21
4.494316562e-21
7.670890773e-21
3.849738291e-21
7.509170488e-22
1.927027066e-20
5.172072822e-21
1.193211074e-21
9.600196409e-21
3.630554528e-21
2.858320838e-21
6.385675105e-22
3.968393995e-22
1.045296369e-20
3.755918554e-21
3.388641373e-21
4.745434002e-21
1.926566736e-21
2.5696746e-21
9.711486818e-22
4.107857505e-21
1.790424356e-22
9.485269457e-22
1.743815057e-21
1.082088532e-21
1.42854766e-21
1.000356875e-21
3.877208273e-21
6.111796144e-22
8.070667393e-21
4.713307097e-22
3.120010135e-21
3.769004272e-21
2.209241313e-21
2.522870968e-21
4.193541342e-22
3.017124341e-21
3.434674437e-21
7.106811002e-21
3.276979746e-21
7.302332587e-21
1.414463913e-21
1.102770956e-21
4.06797799e-22
1.276671836e-20
1.216784816e-20
1.538790943e-21
2.191789012e-21
2.443535517e-21
2.799104195e-21
3.369106709e-21
3.217077205e-21
1.146133712e-21
2.297810913e-21
4.919253874e-21
9.20481525e-21
1.488817121e-21
4.043170205e-21
4.56880893e-21
2.120740436e-21
4.804561323e-21
7.868747346e-21
2.307250856e-21
9.727449261e-21
1.106903944e-21
1.623386528e-21
2.071655856e-22
1.125515299e-20
1.089646964e-21
6.789395259e-21
3.752176317e-21
1.92220981e-21
3.81797937e-22
2.050287035e-21
4.319573375e-21
5.390265055e-21
1.893274943e-21
8.985747127e-22
4.854772846e-23
5.511305543e-22
2.584198902e-21
1.299965808e-21
1.08490731e-20
1.694031035e-21
1.015350938e-20
4.226235019e-21
8.805769054e-21
2.92349663e-21
8.090210611e-22
1.474633151e-22
4.351640269e-21
2.658794056e-22
3.98135183e-21
7.924027086e-21
1.979652756e-21
5.271882073e-21
9.362478758e-21
1.599388924e-20
4.683663157e-21
5.009766489e-21
1.402221894e-20
3.224408762e-21
1.35400689e-20
8.175869686e-21
8.831742721e-21
1.267284969e-21
3.134901065e-22
5.655434099e-21
9.436856891e-21
1.530789101e-21
8.581026639e-21
2.291724905e-21
4.776149747e-21
2.855997095e-22
1.861728028e-21
1.72015005e-21
8.241972478e-21
2.09914137e-22
1.281125945e-21
1.27783434e-21
1.14142877e-20
6.806183174e-21
1.902482784e-21
1.083575155e-20
9.617872922e-22
2.543712517e-21
2.449710756e-21
5.256563022e-21
1.40874551e-21
5.845028956e-21
5.911395581e-21
3.168878287e-21
6.590453349e-21
1.393194699e-21
3.222766725e-21
2.683643655e-21
1.452354165e-21
1.220323682e-21
8.669133899e-22
1.005745428e-20
1.298726159e-22
3.916803959e-21
2.968527341e-21
2.733608065e-21
3.830402187e-21
1.091662542e-20
2.093250752e-21
6.808170845e-21
5.007056575e-22
2.38572787e-21
1.371063545e-21
3.420671329e-21
1.732742269e-21
8.305717755e-22
8.242787176e-21
9.02622614e-22
1.765377645e-20
1.399515998e-21
5.177592227e-21
3.58509329e-21
5.857179464e-21
9.750406954e-21
1.050871955e-20
9.266448036e-21
1.241804266e-21
2.085136332e-21
6.935712226e-21
1.003223838e-21
9.808712891e-21
5.394674251e-21
1.10706062e-21
8.368901673e-22
4.429111695e-21
7.037950726e-21
1.935516021e-21
4.223960237e-21
4.717564492e-21
9.379553499e-22
5.694373432e-21
2.252267193e-21
1.525301245e-21
3.036421083e-21
7.151140023e-21
9.586702172e-21
9.674397458e-21
4.345470934e-21
8.483829618e-21
1.008368397e-20
5.525785121e-21
3.574231483e-21
5.016250743e-21
4.325794202e-21
7.887294152e-21
3.649699484e-21
3.87275422e-21
6.548061133e-21
1.807067406e-21
2.04940261e-22
4.720221457e-21
5.132143241e-21
1.141322332e-21
2.167787639e-21
5.533749993e-21
8.926889436e-23
1.934123664e-21
3.863017596e-21
1.553999521e-20
8.752815544e-21
4.0248608e-21
4.378748007e-21
2.325396341e-20
1.109162026e-20
5.007721548e-21
3.203141846e-21
2.57282635e-21
1.318833172e-21
1.210294986e-23
1.293146192e-21
2.290778614e-22
7.696843505e-23
5.567576745e-21
8.291427882e-23
4.641931372e-21
1.42449345e-20
4.626970984e-21
2.104323745e-21
4.946321119e-21
9.282075205e-22
4.333259786e-21
4.819955281e-21
5.113601398e-21
1.032851857e-20
7.512299475e-21
2.682230792e-21
2.457218206e-21
3.4661082e-21
1.582724967e-20
2.630574883e-21
3.589264194e-22
9.862532438e-23
1.615363976e-21
1.127393512e-21
1.970488603e-21
1.79998514e-20
4.789983004e-21
6.175711766e-21
1.168786986e-20
2.005446766e-21
3.293536422e-21
4.175837717e-21
1.780551614e-20
4.422329784e-21
4.891117612e-21
4.403804747e-21
3.347647787e-21
1.866674797e-21
7.203292157e-22
1.092180025e-21
5.46677359e-23
3.827997957e-22
9.016916424e-21
5.901133295e-22
8.378225839e-22
4.270200797e-22
6.433125493e-21
7.403347853e-21
5.240343611e-21
1.515064634e-21
3.920253369e-21
1.643357233e-21
1.352616645e-21
6.185390536e-21
1.212841447e-21
6.254051122e-21
1.292806633e-22
5.344299778e-21
3.36182076e-21
2.187109943e-21
6.59386906e-21
2.520728136e-21
2.302159709e-21
3.754351431e-21
1.41511949e-21
2.502309246e-22
4.53710543e-21
6.935951828e-21
7.775451881e-21
2.832846175e-22
4.965158935e-21
1.003971547e-22
3.093343889e-21
1.990150367e-21
2.972578784e-21
2.18870186e-22
2.05606771e-21
2.971139254e-23
1.97751462e-21
4.342690862e-21
1.097503258e-21
6.24480528e-21
3.429472106e-21
3.779890473e-21
4.361716138e-21
1.196416297e-20
6.317072656e-21
1.040949704e-21
4.804920258e-21
4.17323494e-21
2.79834811e-22
2.018776053e-21
1.239188409e-21
2.430830681e-22
1.965189196e-20
7.283551337e-21
2.957691136e-21
1.085245728e-21
5.200470549e-22
2.899577502e-21
6.075138286e-21
2.510238734e-21
2.798837236e-21
3.019390302e-22
6.733676014e-22
3.146187416e-22
6.445103148e-21
2.110570406e-21
4.955731557e-21
1.480384317e-21
1.376454578e-21
1.361521352e-21
1.353389155e-20
1.501087041e-20
6.495444188e-21
4.591159951e-21
5.071794506e-21
2.693250305e-21
3.522564217e-21
5.18860802e-21
2.221698008e-21
1.347768196e-23
1.180430503e-22
1.782571009e-20
1.897522068e-21
1.064346639e-21
3.045360675e-22
6.112179605e-21
8.911453275e-21
3.944309627e-21
1.208100604e-21
8.675027465e-21
3.67616369e-21
1.540941775e-21
1.853151691e-21
4.268494543e-22
4.27812727e-24
3.59709333e-21
2.943042997e-21
6.802223143e-21
4.478636881e-21
1.944193176e-21
3.531840308e-21
2.253995801e-21
3.095030251e-21
5.985920415e-21
5.794140835e-23
5.063341451e-21
2.549092098e-21
3.960143693e-22
4.196252449e-21
8.922699798e-22
2.154161684e-20
8.827639534e-22
2.17023303e-21
9.265401037e-21
4.4737804e-21
1.963113928e-21
4.175398166e-23
1.302937631e-20
4.151540928e-21
8.671747236e-23
7.207014229e-21
2.146115647e-21
9.130557569e-21
1.911596151e-21
5.984163755e-21
5.264975493e-22
1.429019714e-21
2.271292031e-21
1.235732156e-21
5.099494447e-21
1.067102612e-20
1.817831204e-21
9.099377236e-21
5.172551437e-21
3.784613333e-21
4.366240041e-21
5.555378833e-21
2.006652972e-21
9.798811876e-22
4.769352902e-22
2.989983535e-21
1.852719881e-21
2.309727575e-22
5.216030114e-21
5.369615589e-24
7.643853825e-21
7.034804953e-21
6.65693851e-21
2.468867176e-21
2.883382706e-21
2.259047868e-21
3.797222629e-21
1.42159411e-22
2.779736033e-21
4.725655918e-21
2.702187016e-21
3.584553095e-22
5.569597236e-21
4.26597447e-21
4.589713824e-21
3.686825167e-21
2.217918225e-22
7.014605696e-22
2.252064144e-21
2.114342178e-21
2.105226389e-20
3.808378316e-21
4.052229639e-21
3.396821707e-21
2.60392433e-21
7.748073192e-21
6.334212152e-21
5.18462926e-21
8.831323892e-22
2.591259009e-21
5.007923607e-22
1.607759679e-21
5.280364103e-21
8.522631279e-21
2.974296569e-21
2.351439488e-21
1.933827351e-21
4.569907979e-21
3.375941356e-21
3.754594762e-21
4.574409715e-21
1.241244916e-20
4.33876413e-21
3.893362892e-21
3.273138503e-21
2.36097662e-22
2.823428248e-22
3.704876249e-21
6.185318152e-22
7.924160487e-22
2.317506457e-21
5.995458598e-21
1.65834971e-21
5.455477709e-22
7.954943818e-22
1.365914362e-20
8.88803759e-22
6.16358475e-22
3.371676851e-21
2.035976998e-22
4.951214709e-21
2.830365803e-21
6.326039791e-21
1.136929631e-21
3.976668373e-21
5.497808312e-22
3.295901621e-21
7.261836623e-21
9.74629589e-22
2.909722005e-21
4.474984181e-21
4.386394945e-22
3.961488267e-21
5.542188911e-21
1.43932121e-21
3.07793244e-22
9.123495601e-21
2.875765066e-21
2.322893633e-21
9.571484824e-22
5.856013571e-21
4.747028091e-21
1.973385195e-23
4.744353829e-21
2.198543583e-21
5.690667816e-22
7.179649822e-21
7.121962274e-21
7.466015309e-21
3.047461462e-21
1.971883458e-20
6.619155508e-21
5.707595297e-22
7.374613795e-24
5.069959578e-21
1.07760871e-22
1.314226985e-21
1.227261382e-20
5.949416407e-22
3.593845864e-21
1.225137165e-21
3.205175724e-21
7.880535107e-21
8.294029336e-21
8.668011742e-21
1.356805149e-20
3.361283567e-21
5.053813011e-21
2.739257781e-21
2.781228952e-21
4.064533504e-21
2.923283791e-21
1.434964705e-21
2.2122638e-21
3.16725388e-21
4.840612252e-21
7.821502413e-21
3.542577985e-22
2.740503245e-22
1.435267881e-21
8.430656886e-22
9.69759106e-22
6.987407143e-23
9.688353101e-22
1.326366183e-20
2.926773681e-21
3.670764669e-21
1.599355507e-21
1.022048917e-20
1.261873765e-20
5.769450238e-22
5.093973338e-21
1.574012944e-20
2.297026315e-21
4.802022631e-22
1.44893026e-22
1.373663024e-21
2.182038147e-22
9.095161136e-22
8.504085886e-22
9.772198699e-22
8.490264788e-21
8.349646578e-22
1.108701152e-21
2.499693456e-21
2.604870222e-21
5.037782948e-21
1.109062992e-20
8.728663872e-21
2.915827867e-21
1.28214997e-21
1.356042588e-21
1.178546896e-21
4.712001509e-21
6.779403046e-21
5.392060717e-21
8.061981748e-21
4.409749963e-21
9.106657518e-21
2.110520122e-20
5.084676772e-21
2.232754111e-21
4.025787699e-21
3.102678864e-21
1.490859466e-22
1.219747941e-21
2.816420674e-21
3.699216746e-22
1.878503656e-21
6.704805753e-21
1.352251071e-21
6.851411658e-22
6.490046167e-21
7.481239136e-23
3.092039338e-22
4.226397801e-21
7.624563872e-21
1.386525679e-21
9.490789659e-21
1.490254892e-20
1.4173727e-21
1.147411636e-20
1.831970791e-21
6.565795459e-21
4.149402546e-21
6.060396534e-21
1.889332124e-21
5.476884699e-21
3.6231509e-21
1.007262297e-21
2.564378607e-21
6.895175791e-21
1.5452168e-21
1.608028174e-20
1.404560754e-21
1.055036656e-21
5.46586388e-21
1.779728605e-21
1.929308954e-22
1.139013751e-21
1.647406158e-21
1.043307739e-22
1.779128687e-22
4.149677951e-21
5.05981166e-21
2.737189002e-21
7.492133212e-21
4.447843867e-21
3.446423315e-21
8.716927519e-22
9.84736792e-22
1.217501412e-21
5.158925023e-21
2.906371964e-21
3.625448552e-22
3.135003102e-21
3.219628628e-21
1.197771672e-20
2.363197997e-21
3.591972313e-21
8.373487645e-21
1.272779672e-21
3.439506768e-21
1.604763745e-21
1.293262669e-21
9.84711181e-22
3.734220237e-21
3.053096058e-21
6.651213881e-23
7.697372605e-21
3.456578945e-21
3.085840159e-21
6.693877203e-22
1.336942409e-21
3.100930082e-21
2.508422777e-21
3.835524269e-21
1.049523335e-23
5.095479696e-23
1.03896842e-21
4.916484981e-21
1.234850888e-20
4.828855807e-22
4.546644418e-22
5.524525043e-21
6.445769764e-22
4.432419287e-21
1.077287745e-20
3.018404953e-22
9.835467036e-23
2.989069353e-21
9.160537704e-22
1.484351586e-20
7.154841099e-21
5.061300819e-21
5.634136654e-21
1.805167597e-21
3.954544468e-21
5.073949375e-22
1.094624789e-20
4.33851566e-22
4.077451319e-22
1.211344862e-22
7.525351042e-22
1.95166112e-21
3.683354324e-21
1.501869064e-21
3.335030833e-22
5.224544715e-21
9.545504088e-24
2.453942499e-21
1.322704124e-20
1.182873008e-22
9.184790638e-21
1.628318562e-21
2.591770253e-22
2.369922193e-21
4.355350164e-22
2.499993469e-21
8.80844416e-22
2.821592615e-23
2.914088686e-22
6.017574666e-22
2.140192832e-21
3.385382288e-22
3.299086077e-21
6.868866188e-21
7.180649613e-21
1.181409735e-21
1.52378109e-22
4.653454757e-21
3.540501321e-21
1.698022935e-21
9.168175806e-22
2.476569851e-21
1.75424339e-20
1.200797781e-21
5.231374549e-22
2.561213452e-21
1.734156221e-21
1.59929001e-21
9.053289733e-21
2.204813316e-21
2.801148163e-21
1.985365283e-21
1.993053693e-21
2.648875745e-21
4.016201824e-21
7.239424168e-21
1.092521364e-22
5.577719051e-21
7.929978917e-22
1.126603638e-20
4.878424116e-21
7.881894436e-21
7.778044387e-22
7.710600992e-21
1.272526889e-20
4.743273092e-22
3.481613722e-21
2.641155554e-22
2.489832974e-21
1.442259262e-21
5.291055492e-21
6.293660007e-22
5.873510213e-21
8.144933052e-21
1.011034623e-20
4.937309684e-21
1.671158348e-20
2.571433959e-21
5.072789749e-21
1.520218341e-22
6.696362473e-21
1.879741232e-21
3.760351012e-22
1.339636323e-22
2.54592964e-20
9.25522566e-22
1.138250409e-21
1.662963416e-21
4.726818893e-22
4.005955221e-21
2.207413231e-21
7.196625506e-22
8.858735643e-21
1.703211191e-21
1.702067319e-21
1.035332474e-21
2.838660061e-22
9.149802167e-22
1.274454766e-20
2.370907264e-21
1.068291881e-20
5.120960974e-22
2.332886611e-21
5.195920661e-21
5.182660831e-22
7.274328673e-21
9.391911954e-21
2.655326666e-21
9.764660147e-22
3.626208253e-21
6.593130523e-23
2.450026915e-22
1.153024387e-20
8.074408054e-22
7.357338757e-21
5.213248258e-22
4.143286552e-21
3.340973756e-22
1.932913738e-21
2.994697724e-21
5.897265758e-21
2.131884466e-21
8.44342857e-21
8.004335873e-23
9.405476756e-21
8.253261396e-21
6.616476827e-21
5.9372511e-21
2.887550433e-21
2.306173676e-21
1.871384124e-21
7.588487775e-22
1.326663855e-20
1.416808756e-20
4.154523424e-21
2.16122041e-21
6.935461338e-21
1.482290748e-21
2.441887551e-21
1.454868614e-22
5.354165684e-22
8.920067872e-21
2.899231828e-21
1.422227847e-21
1.573483277e-20
4.222494596e-21
1.214209603e-20
5.901342063e-21
3.833779746e-21
2.228496451e-22
1.413562359e-20
4.928291591e-21
6.322928043e-21
1.09707498e-21
2.2101969e-21
8.599720656e-23
6.925350893e-21
1.879264459e-21
8.138102862e-21
1.073060225e-21
5.427606428e-21
1.246150506e-20
3.120817273e-21
1.955048487e-21
8.131890924e-22
1.021375899e-20
5.173235035e-21
6.955605096e-21
1.606348208e-21
1.081380354e-20
7.109719741e-21
5.207162236e-21
1.295488309e-20
1.965993975e-21
1.655834705e-20
4.438496189e-21
3.97974664e-21
2.891228712e-21
1.076245657e-20
9.545606777e-21
1.646211039e-21
1.088126193e-21
6.357234746e-21
2.256857197e-21
4.88141875e-21
2.899939951e-21
7.590506178e-22
1.411395403e-20
6.195459208e-23
6.857194961e-22
5.605282152e-21
9.919805258e-22
2.970952506e-21
9.780442234e-22
2.834012143e-21
1.387317981e-21
2.017784237e-21
3.750667147e-21
4.198481917e-21
4.381089955e-21
1.385345248e-21
2.658322945e-21
4.415051105e-21
5.786539072e-21
2.609753329e-21
1.66424432e-21
1.699828359e-21
1.010537794e-21
2.065978736e-21
5.3894817e-21
4.081941812e-21
1.301163125e-21
3.052702297e-21
3.732875179e-21
4.285600489e-21
7.307994644e-21
2.670998071e-21
6.541852528e-21
1.417240785e-21
6.590224857e-22
8.774829599e-21
9.117451126e-22
2.297296674e-21
2.708281833e-21
8.691612198e-21
3.545311343e-21
1.907211988e-21
8.601751879e-23
2.82268417e-21
7.101320259e-21
5.784726125e-21
2.263549161e-22
2.161086429e-21
1.571119019e-21
2.578011893e-21
2.536262746e-21
8.716365515e-21
1.103305474e-21
6.245828155e-22
4.659988339e-21
3.593028511e-21
1.230500364e-21
4.177809475e-21
2.870674422e-21
3.714790803e-21
1.52621564e-21
1.280076412e-20
4.858030228e-22
4.325900431e-21
9.032316726e-23
5.476664589e-21
4.867031276e-21
1.501951672e-21
6.09412182e-22
5.89184313e-21
3.233635907e-23
6.147117006e-21
1.093769226e-21
9.502863113e-21
4.351064474e-21
1.196909636e-21
1.402748153e-21
4.081117745e-21
2.126478995e-21
3.071024474e-21
1.521648553e-21
5.648682196e-21
8.463410589e-23
3.145104294e-21
1.673176684e-20
3.696084734e-22
2.924537537e-21
5.315879502e-22
6.437785548e-21
1.197925833e-21
4.015262022e-21
1.058651657e-20
1.140129991e-20
1.953754965e-21
7.345722941e-21
1.369047072e-21
1.320468819e-21
3.498295282e-21
1.529316686e-21
1.849631223e-21
3.166570109e-22
2.02268496e-21
1.139126715e-21
5.643213074e-21
2.186864676e-21
3.060941426e-21
1.433258851e-21
3.843151393e-21
1.131903715e-20
4.575709601e-21
4.872884841e-21
8.68704988e-22
1.236917049e-21
3.819624795e-21
1.555002682e-21
7.060663345e-22
6.082295633e-22
2.508450201e-21
5.601016472e-22
1.678601518e-21
9.892053345e-22
2.795824148e-21
2.272355076e-21
2.193632535e-21
6.361479338e-21
2.221486713e-22
5.73903812e-21
1.114369396e-21
8.941398033e-21
8.484548167e-21
4.49056033e-22
7.05706547e-21
3.076405156e-21
1.05454559e-20
1.984301816e-21
5.523141349e-21
2.953343251e-21
1.61701376e-21
5.129511606e-22
7.417124385e-21
1.309345284e-21
2.787642879e-21
4.005419378e-21
8.472481631e-21
4.508829031e-22
2.270064546e-21
1.186949571e-20
4.926975143e-21
1.2198204e-21
1.011506481e-20
3.237330995e-21
1.857843901e-21
8.354128079e-21
9.531632535e-22
8.110048348e-21
2.400370546e-21
6.5170042e-21
7.798092788e-21
1.317191869e-22
5.29952752e-21
3.788360442e-21
1.074234928e-20
1.863723438e-21
1.077718309e-20
5.239199121e-21
5.48442087e-21
3.067224497e-21
7.539174854e-21
1.923720452e-21
9.787715762e-22
3.680933904e-21
2.448701695e-21
9.369152127e-22
2.846594675e-21
3.261222957e-21
1.039455088e-21
7.903284216e-21
1.294134249e-20
1.213238494e-20
3.033547246e-21
2.860412011e-21
5.855129935e-21
1.566497475e-20
8.146660479e-21
4.359739884e-21
1.894775998e-21
1.05554147e-21
1.05977608e-20
6.480281094e-21
4.754548386e-21
8.455577493e-21
4.229677872e-21
7.630210459e-21
1.596637438e-22
6.725144338e-21
8.841247092e-22
1.285214613e-21
6.028325339e-23
8.945945109e-21
3.83347118e-21
1.579456148e-20
2.545635939e-22
2.136631648e-21
9.836462399e-21
2.684500545e-22
7.451122418e-22
2.449355799e-21
1.928136054e-21
1.320385512e-21
1.895070749e-21
1.853372031e-21
2.972048939e-21
3.009842469e-22
6.245365177e-21
4.268427654e-21
2.402246328e-21
1.614443995e-21
4.877274745e-21
3.200752035e-21
3.455905544e-21
1.300479475e-20
6.165500515e-21
1.719596019e-21
8.533762939e-22
4.582189211e-21
2.299417962e-21
1.811340901e-21
5.700172097e-21
1.736781795e-21
3.812255948e-21
5.011438621e-21
1.117599335e-20