/*--------------------------------*- C++ -*----------------------------------*\
| =========                 |                                                 |
| \\      /  F ield         | OpenFOAM: The Open Source CFD Toolbox           |
|  \\    /   O peration     | Version:  2.4.0-MNF                             |
|   \\  /    A nd           | Web:      www.OpenFOAM.org                      |
|    \\/     M anipulation  |                                                 |
\*---------------------------------------------------------------------------*/
FoamFile
{
    version     2.0;
    format      ascii;
    class       Cloud<dsmcParcel>;
    location    "0.001/lagrangian/dsmc";
    object      positions;
}
// * * * * * * * * * * * * * * * * * * * * * * * * * * * * * * * * * * * * * //

64126
(
(-0.02394405391 0.009512502863 -0.0246224335) 1145
(0.01148747894 0.03296452469 -0.03221670957) 612
(-0.04067262478 -0.006924669744 0.03256955888) 4601
(0.03397058125 0.01548898874 -0.01035204669) 1836
(-0.00764374888 0.005173530873 0.01784558859) 3708
(-0.04037482258 0.01247225713 -0.03847534964) 201
(-0.02280751652 0.03541556267 -0.01338283305) 1905
(0.03472185962 0.02131806109 -0.01791398068) 1536
(0.04645518817 0.03774150517 0.03431612566) 4799
(-0.03976089574 0.007530318504 -0.02966416743) 822
(-0.007059975442 0.007321907883 -0.01845056734) 1468
(-0.03151474423 -0.03940564408 -0.03878321361) 3
(-0.02244569383 -0.006438528513 -0.03898788702) 125
(-0.01514543647 0.01733531426 0.02686257703) 4386
(0.01118114113 -0.0109614405 -0.01816459596) 1392
(0.005992705845 -0.00236319464 -0.02696337719) 791
(-0.04666702783 -0.03995408042 -0.00609372112) 1920
(0.006722140078 -0.03468010078 0.01289549308) 3231
(-0.04514347333 -0.02990685315 -0.00603272953) 1960
(-0.0353690374 -0.02640614366 -0.03361056911) 362
(0.002169796174 0.002542275929 -0.003578970373) 2410
(-0.01084713683 -0.007720527608 0.03251511823) 4607
(0.007028455399 0.01356943332 0.02455569612) 4051
(0.03429040426 -0.0384942384 -0.01507543515) 1296
(0.04720900798 0.01535741794 0.01762991734) 3759
(0.005788451943 -0.009666851241 -0.01305472833) 1731
(-0.04808849131 0.007109209135 0.01378944256) 3380
(-0.01275956095 -0.01130115308 0.007802248426) 2987
(0.008094219627 -0.02062998739 0.002163496977) 2631
(0.02875305215 -0.03955945917 0.004013705185) 2575
(0.04577590476 -0.00723396059 -0.03148240746) 459
(-0.02202089082 0.03740296537 -0.01160733179) 1905
(0.009941391619 0.005988339508 0.02827081113) 4351
(-0.01787854581 0.002042676337 -0.02022866725) 1126
(0.008977951834 0.0116522429 -0.001395825921) 2451
(0.02968132764 1.225844892e-05 0.01551843853) 3695
(-0.04983986413 0.02260671083 -0.007035123138) 2160
(-0.003828608639 0.003024766054 0.02520663293) 4329
(-0.02176874265 0.02175153187 -0.0284743573) 885
(-0.04264441516 0.0124365832 -0.03893754336) 201
(0.01987869448 0.02409505135 0.002335095391) 2813
(0.008270483272 -0.03443345564 -0.01927519493) 1311
(-0.02364439879 -0.009331395111 -0.001863526295) 2365
(0.02067308126 0.02119890004 -0.03054416594) 574
(0.04602054185 0.02850121028 -0.03296071522) 599
(-0.03365256681 0.03682213629 0.004282995624) 2863
(-0.02498443754 0.01532376207 0.03068693449) 4705
(-0.0006371175311 0.0130388752 -0.02421280013) 1169
(-0.03231803813 0.02957153731 -0.0392824733) 263
(-0.03907915395 0.007109775322 -0.03542518409) 182
(0.006660289938 -0.02821788918 -0.01692966484) 1331
(0.005312032934 -0.01430138452 -0.03471638113) 431
(-0.004929828838 -0.03898594943 0.0122445178) 3209
(-0.04775088062 -0.01859506973 0.03541967023) 4880
(-0.00122511173 0.03878867053 -0.005043710932) 2229
(0.03718790545 -0.02469119625 0.03877974062) 4877
(-0.0132065081 0.006267859104 0.02021878921) 4027
(0.0134419624 0.00539914113 0.03709032086) 4992
(0.001242210665 0.03399848957 0.01622065208) 3810
(-0.005162996786 -0.00672733726 -0.03520952843) 128
(-0.01393525415 0.008409653804 -0.008892832385) 2107
(-0.03601182544 0.03549974546 0.01724373582) 3822
(0.02993897549 0.02940172655 -0.00900274713) 2195
(-0.002897263548 -0.01958478116 -0.02642903119) 729
(-0.009409685842 -0.01679360093 -0.004260225273) 2328
(-0.0001163423628 -0.01973037956 -0.02971316569) 729
(-0.01546406784 -0.03394929202 -0.01421284197) 1626
(0.0334591779 -0.003636728162 -0.02166313473) 1116
(-0.01549009373 -0.005862596917 -0.02926784528) 766
(-0.008512814892 0.03875738156 -0.03485465685) 628
(0.02246040247 -0.01379048385 -0.03335340332) 434
(-0.008076109147 -0.02846511305 -0.002702882077) 2288
(0.02295416165 0.004793256237 0.002768768818) 2734
(0.04263411783 0.002646505809 -0.00401727864) 2418
(0.006387243476 0.006809767945 -0.01088678641) 1791
(-0.001671985633 -0.01523965224 -0.01616240781) 1369
(0.0311945122 -0.02679679811 -0.02328670646) 1016
(0.00869964611 -0.006549000488 -0.03264681205) 451
(-0.03165723651 -0.01665325534 0.02113474929) 3923
(-0.02359880203 0.03980172049 0.03343254202) 4785
(0.03314079571 0.006742391416 -0.03268978664) 516
(-0.04321959427 0.003634653305 -0.02880424954) 801
(0.04036716415 0.0143662507 -0.003045457447) 2458
(0.01714440183 0.01394743452 0.03240477126) 4693
(0.0009521352041 0.001202835664 0.031042258) 4650
(0.01435522062 0.02309010625 0.02668813599) 4412
(0.001498824628 -0.02193203266 -0.008742127508) 1990
(-0.007845458948 0.003237133506 0.03364509761) 4648
(0.0227328354 0.001053555015 -0.01655280757) 1454
(-0.01015730107 -0.02062464519 -0.01440819676) 1667
(-0.04613923195 -0.03613275613 -0.0235676268) 960
(0.04806632164 -0.02983149895 0.001789227431) 2619
(-0.01599251015 0.02585212821 0.01678236691) 3786
(-0.04833911908 -0.02257693493 0.00607682441) 2940
(-0.005412495494 0.0369994693 0.03966512433) 5108
(-0.01547429766 -0.0005567825291 -0.006162359426) 2066
(0.02013946242 0.02054601805 0.008733622086) 3134
(-0.01061241951 0.03437357818 -0.02193352569) 1247
(0.01552186411 -0.01156574964 0.02192436899) 3953
(-0.02366165276 0.01831058336 0.02552993683) 4385
(0.04528137786 -0.01980643536 -0.02376089028) 1059
(0.03564129905 0.0001995720245 -0.02647833775) 817
(0.03200551795 -0.02606497849 -0.01766013726) 1336
(0.003177574206 -0.01261584487 0.003235599275) 2670
(0.0464731013 0.006748631165 -0.01843052735) 1479
(0.01970274936 -0.02512511645 -0.01366851376) 1653
(0.01729127568 -0.003214958577 -0.002384885329) 2393
(0.02584467522 -0.01571122095 0.02880768877) 4255
(-0.0271921623 0.004005880978 0.01054541762) 3364
(-0.04702761528 0.01478370813 -0.0245930232) 1160
(0.01527680204 0.03369614984 0.00321992318) 2853
(0.008204274858 0.02204428727 0.01076192511) 3451
(-0.01498052501 0.0128782357 0.01318035548) 3407
(-0.0142109776 -0.01021600159 -0.03913507943) 107
(0.01839129043 -0.01616668458 0.01191993015) 3293
(-0.01317547228 -0.02303106562 -0.02391698715) 1027
(-0.03426046599 0.0250788819 -0.0228462764) 1223
(0.004417994542 -0.001824579549 -0.0136789284) 1750
(-0.04109177697 0.002945183171 0.03512401381) 4961
(0.01313696264 -0.004581354488 -0.01191949554) 1752
(0.01868242168 0.000151033882 0.01386742937) 3373
(0.03473170652 0.02862854102 -0.004350098669) 2516
(0.00539735735 0.02541777543 0.03211336159) 4751
(0.0471149523 0.03500444938 -0.01504301137) 1599
(-0.0197647159 0.01637634404 0.01850173608) 3746
(-0.02982901164 0.02111986161 -0.03502302006) 244
(0.008876620867 0.01319155524 -0.03610108117) 211
(0.01067307555 0.002900689122 0.01818634092) 3692
(0.01158051762 0.0339930049 -0.03115768204) 612
(-0.03852419316 0.002217604235 -0.0314060638) 482
(0.01102151704 0.00489898753 0.007213042912) 3052
(-0.02713549361 0.0102580712 0.0128740445) 3404
(-0.01068764404 0.02783871775 -0.001570471888) 2507
(0.03292190118 -0.03158688795 0.01118468241) 3236
(0.01015184636 -0.03710201043 -0.02907913047) 652
(-0.02053595373 -0.03478552829 -0.03476445301) 345
(-0.006365883586 -0.01590809975 -0.03035549058) 408
(-0.0007299527764 -0.01388741856 -0.01622516004) 1389
(-0.004203941668 -0.03545371855 -0.005321549425) 1929
(-0.04922176765 0.03745958188 0.02265576789) 4140
(0.02339346802 -0.005158383738 -0.0374494998) 134
(-0.01980694492 -0.01171607786 0.006056234469) 2986
(0.04102765659 0.007215185723 -0.02367566166) 1158
(0.03521250081 -0.007938585014 0.01217194029) 3337
(0.03818058147 0.03135538689 -0.02730465895) 937
(-0.01682391189 -0.03950857361 -0.03365627984) 326
(0.007092820244 -0.02325267732 -0.003352785544) 2311
(-0.0366430249 0.002060743997 0.01186385874) 3362
(-0.03237108718 -0.01809264694 -0.002020000554) 2323
(0.01908221345 0.02863518904 0.003418240488) 2833
(-0.04573206899 -0.02224392316 -0.01021462944) 1660
(0.009473086851 0.0003118063287 0.008862189672) 3051
(0.04035447199 0.0179275011 0.01811548708) 3758
(-0.007414817786 -0.01669772619 -0.01048379837) 1688
(0.03290188092 -0.03295044282 0.002753393487) 2596
(-0.04680163564 0.03352187132 0.004001763956) 2840
(-0.0323161084 -0.01002193842 0.02823394964) 4263
(0.02504986263 0.01261627401 -0.007707504728) 2135
(0.02131993835 0.005546112963 0.007874962861) 3074
(0.02262722763 0.002735935884 -0.002015742505) 2414
(0.02352467144 -0.02853562628 -0.01540931935) 1334
(-0.04696168128 0.009797498747 0.02288744326) 4020
(0.002907698098 0.003695582925 -0.02855862197) 810
(0.04745367582 -0.01307117357 0.01150868408) 3319
(-0.02509343489 -0.03802938863 0.02961490367) 4164
(-0.02806161697 0.003397852624 0.01376885003) 3364
(0.02229223383 -0.03031067693 0.01532266982) 3554
(0.02890265398 0.01210488288 0.01109854834) 3415
(-0.01640078149 -0.03464046874 0.03317932076) 4506
(0.02414954486 0.008557277844 0.006406907944) 3074
(-0.03825362591 -0.03093699693 0.03507343131) 4822
(0.01002666958 -0.03482859759 -0.02419004751) 992
(0.03425827526 -0.005085150146 -0.01816942815) 1416
(-0.01164313527 0.0005178591542 -0.01507793587) 1447
(-0.02412399454 0.01537724464 0.03390659471) 4705
(-0.02932265869 -0.00688354104 0.03398679802) 4604
(-0.005325286684 -0.03545526815 0.03598701859) 4808
(0.0300945279 -0.01398837361 -0.02540377497) 756
(-0.01109800002 0.008870101373 0.01849783153) 3707
(0.04917206086 0.006278820409 0.02461440655) 4039
(-0.02712650578 0.00111735389 -0.01540766933) 1444
(-0.03963129207 -0.03580965668 0.02378660168) 3842
(0.0382862535 0.004942203093 -0.002365225274) 2417
(0.0100568063 -0.007293189506 -0.02174703447) 1092
(-0.01687067166 -0.03112167425 -0.01231587625) 1626
(0.03814935702 -0.004238205796 0.03691885508) 4957
(-0.01913974108 0.006365347882 -0.009495444127) 2106
(0.02142577389 -0.01384647947 0.02300254924) 3954
(-0.01570544978 -0.02187259553 -0.02786463317) 706
(0.04717710153 0.003566070134 -0.006519734736) 2099
(0.005679012991 -0.002648005019 -0.02558406907) 791
(-0.04837204888 -0.005963348265 -0.02583291542) 760
(0.01456081244 0.03550741086 0.02728120271) 4472
(-0.0418705636 0.0003709542535 -0.01852427866) 1441
(0.00402960955 -0.03785016871 -0.008776269565) 1930
(0.001897389213 0.03900460221 0.02442443076) 4150
(-0.005045719997 -0.0143627681 0.03862730061) 4908
(0.01374787712 -0.03142352868 0.03227416384) 4512
(-0.008460688253 -0.03674967765 -0.004602003805) 2248
(0.006378926512 -0.03653126243 0.001660116049) 2571
(0.02734886746 0.01362469692 0.02549087564) 4375
(0.001723976406 0.03554719878 -0.02322943594) 1270
(0.04677625429 -0.003683671807 0.02961285475) 4319
(-0.02853338782 -0.01875908368 -0.002962703761) 2324
(0.03699921729 0.02407046266 -0.02915615001) 897
(0.02851354181 -0.00920541321 0.0354054078) 4935
(-0.01485193197 0.003603356847 -0.03332221595) 487
(-0.01221249104 -0.01389191664 0.001789348911) 2667
(0.01975580248 -0.02786670058 0.01396596809) 3253
(0.03773856608 0.0002607177668 -0.01304746732) 1777
(-0.004112689244 -0.004269899226 -0.01680974424) 1429
(-0.02849178441 -0.02560536213 -0.01543520269) 1324
(0.01508163702 -0.03971299586 -0.01013035913) 1613
(-0.02199784945 -0.03825032588 -0.03508804102) 5
(0.0498283184 0.03906245875 0.01491780377) 3519
(0.04841212924 -0.03413667205 -0.01048024123) 1639
(0.01271986972 0.003368961162 0.02396084279) 4012
(-0.004993771365 0.03701255772 -0.01626557336) 1589
(-0.008830538981 -0.02595820673 0.01431647009) 3248
(-0.02285610709 0.02477065113 -0.0284448866) 885
(0.004683341562 -0.0197205846 0.02176253625) 3930
(0.009261803323 -0.01326511972 0.005274552034) 2991
(-0.02876509546 0.01011214632 0.03053274989) 4684
(0.008228276795 -0.03752946978 0.02261490052) 3851
(0.004087828818 -0.02952285779 0.006226670565) 2930
(-0.03202501913 -0.03745091429 0.01931455905) 3523
(-0.01138717998 0.0100632698 -0.007758128863) 2127
(0.04665436064 -0.01076657963 0.03251766824) 4599
(-0.003302896227 -0.02957148751 0.002307363693) 2609
(-0.02961659745 0.01118237795 0.000195197765) 2764
(-0.03456922665 -0.01832431915 -0.02415069942) 1043
(0.01975958917 0.009783488393 -0.005139459706) 2113
(-0.01123666614 0.02277543337 0.03286022511) 4727
(-0.02152136006 0.03030695276 0.03240179961) 4765
(0.03214075455 0.02795932738 0.01879106869) 3796
(0.04776042701 -0.004485444048 0.02235945249) 3999
(-0.004062157821 -0.03808616679 0.007353223786) 2889
(-0.03258349419 0.02319653099 0.02110610814) 4083
(0.01558316832 0.005745010462 -0.02656639495) 833
(-0.03074587541 0.02304879865 -0.009633916002) 2163
(0.01178958267 0.02291568494 -0.0001593896671) 2492
(-0.04407661804 0.02041452832 0.03202515192) 4721
(0.0317061659 0.03443830822 0.02009432207) 4136
(0.03941479396 -0.01780624523 -0.01132278994) 1697
(0.04352176076 -0.03958756397 -0.03382423443) 338
(0.04812236153 0.005623358103 0.01068114317) 3399
(0.02286073107 -9.812414099e-06 0.03280192073) 4634
(-0.007801142681 0.020329706 0.02193850438) 4088
(-0.003280408958 -0.03413537418 0.02639637851) 4189
(0.005124061315 0.0001416355874 0.03769814147) 4971
(0.04399033015 -0.02770539853 -0.004646732645) 2298
(0.01627130004 -0.02304215817 -0.03777539412) 73
(-0.03966468905 -0.003147975857 0.02997932784) 4302
(0.0494757781 -0.002827621276 0.0003136194704) 2719
(0.006572474751 0.006610306879 -0.005069562112) 2111
(-0.01770389356 -0.0369089209 0.0006613566684) 2566
(0.04270637658 0.0306702856 -0.0255720718) 938
(-0.02787084467 -0.02540674759 0.02021361022) 3884
(-0.03026353621 -0.01203642636 -2.874602003e-05) 2343
(-0.04604356199 0.02072463659 0.01417739756) 3440
(0.002538943693 0.002988404945 -0.01901125869) 1450
(0.04530644124 0.0007406853375 -0.02097595344) 1139
(-0.04090988228 0.002085101429 -0.02332282729) 1121
(-0.02670643105 0.01138022779 0.03987774813) 5004
(-0.03120526577 -0.01197194694 0.01427689356) 3303
(0.04029271321 -0.02999225649 0.03424226902) 4538
(0.02037197018 -0.00704778206 -0.0361565593) 134
(-0.002290547265 0.03231491484 -0.01876764523) 1569
(0.00958658805 -0.03747857233 -0.008172427625) 1931
(-0.04069362454 0.03582872878 -0.03555822738) 301
(-0.02473940991 0.03217445448 -0.02963131197) 925
(-0.008386005167 0.0266811542 -0.005526854718) 2188
(-0.001048219377 0.02063043981 -0.008246794406) 2169
(-0.0007137507359 -0.0322311171 0.01551340223) 3549
(-0.01459637877 0.01151513055 -0.02765513395) 847
(-0.03956350393 0.03128534112 0.03316261983) 4762
(0.03912675889 -0.02534338775 -3.505074404e-05) 2297
(-0.04083055945 0.02286243715 -0.005839981067) 2161
(0.03853266956 -0.03758935573 -0.0229075634) 977
(0.04488828585 -0.03252724452 0.004564241865) 2598
(0.03065486747 0.03265326825 -0.006601464019) 2216
(0.007156743951 -0.0368374123 0.007601538204) 2891
(-0.003738069613 0.03287773608 0.01321808537) 3489
(0.0293975717 -0.0182997436 0.03076332999) 4575
(0.008284290625 -0.009787613431 -0.005982033979) 2051
(0.0235311148 -0.002679581136 -0.01230873788) 1754
(-0.009562318684 0.03996272661 -0.006846976685) 2228
(0.002737151141 0.0003308948804 -0.008604773927) 2090
(-0.02569774744 0.01606016574 0.002491473179) 2784
(0.009068692447 0.03075430457 -0.0349532068) 611
(0.005083308251 0.01264916079 -0.03010963866) 531
(0.02564017743 0.03473085683 0.03960322905) 5095
(-0.03290736946 0.01112317077 0.03871951588) 5003
(-0.01132335538 0.03901936091 -0.002432916702) 2547
(-0.0134253718 -0.03869591077 -0.006971411393) 1927
(-0.005608732229 -0.03684779001 -0.004181234689) 2248
(0.01987987481 -0.01444986008 0.0205150234) 3953
(-0.0250359204 -0.03755114944 -0.0286331336) 644
(-0.04053076995 0.03846285996 0.02847780983) 4461
(0.01944661589 0.02118375754 0.005816930508) 3133
(0.02721060127 0.009073361549 -0.01831433628) 1475
(-0.01981632565 0.004734465392 -0.007127990223) 2086
(-0.03987112711 -0.00742427873 0.02328473339) 3962
(0.03797655751 0.03509529503 0.02889888463) 4477
(-0.01036729986 -0.02292451213 -0.01671145442) 1347
(-0.03316368295 -0.010631693 0.01094002222) 3303
(-0.02705808639 0.02502305563 0.02345973945) 4104
(-0.0261931742 -0.00121127759 -0.02558708103) 784
(-0.01384662155 -0.03668816551 0.03688790232) 4807
(-0.01147894545 0.03327163387 0.01701921305) 3807
(0.04030616322 -0.03018498123 -0.03334505011) 358
(0.0122361974 -0.01667872655 0.02365094527) 3932
(-0.00319728606 -0.03680804449 0.03325568347) 4489
(0.03368752901 -0.03342912535 0.02808028413) 4196
(-0.04316562503 0.02813419802 0.0228099668) 4101
(0.01825567721 0.01073257447 0.03587899998) 5013
(-0.04046747081 -0.003003929508 -0.01975890665) 1421
(0.01743867491 0.02102306822 0.004359474377) 2813
(-0.006611890335 0.01059582316 0.03158287245) 4688
(0.003700332482 -0.01688053774 0.0009629206112) 2650
(0.02482250071 -0.02741839094 0.002518836929) 2614
(-0.01462872473 0.01152841917 0.01847742547) 3727
(0.02315407071 0.01155879754 -0.01064900141) 1814
(-0.03310692141 -0.01920768393 0.02384925934) 3923
(-0.001801399031 -0.01982902338 -0.003579001876) 2329
(-0.006375883698 -0.01357335406 0.001866778475) 2668
(-0.0350799251 0.01618906552 0.03153163334) 4702
(0.03973290827 -0.005254788562 -0.02847742507) 777
(0.02299182849 0.02297036808 0.03983445631) 5054
(-0.00117833092 0.03247505869 0.01102943568) 3489
(0.008910198969 0.006245613708 -0.02003880868) 1151
(0.001114951152 0.01607023779 -0.002416551296) 2470
(-0.04899784775 0.009319047578 0.01075441044) 3380
(0.0192298166 0.02158568496 -0.02890431511) 893
(0.0205133167 -0.03378938518 0.01842316063) 3554
(-0.0006445783751 0.02296683383 -0.02573516396) 889
(0.01068645933 3.471165948e-05 -0.01763998402) 1452
(0.03646062399 -0.01116292603 0.01254369346) 3317
(-0.01872786136 -0.01992618491 0.03596258169) 4886
(0.04213269617 0.01628805682 0.03770390385) 5038
(-0.04886322331 -0.003133563274 -0.01424718713) 1740
(0.01402534979 0.03716058021 -0.03734884511) 312
(-0.01141909217 0.006221553885 -0.02680719639) 827
(-0.02686555782 0.005756413347 0.02349819964) 4024
(-0.03683117724 -0.0299216683 -0.005341762614) 1962
(0.02766622515 0.03097060812 -0.002069206165) 2535
(0.03756698686 -0.0266962143 -0.01135319317) 1657
(0.03732410577 -0.03825936976 0.03664223015) 4817
(-0.009512243313 -0.03687376141 -0.01569534373) 1288
(-0.0356174667 0.00349846502 0.03274823049) 4642
(-0.02103955474 -0.0162637564 -0.01474071065) 1685
(0.0312629738 0.017618216 0.02033448677) 4076
(0.04590911773 -0.02319663192 0.01643395792) 3599
(-0.03178773061 -0.01037120559 -0.03945168136) 103
(0.004150022153 -0.00308336351 -0.0302933278) 470
(-0.002758756482 -0.02489303954 0.02432413819) 3909
(-0.02606150055 0.004521013395 0.02493836919) 4004
(0.03530721065 0.02768188607 0.00732257068) 3157
(0.01135298315 0.02152609912 0.003587696142) 2812
(0.01755209748 0.03162698268 0.02851990679) 4453
(-0.02195538181 -0.03146588978 -0.03804495763) 25
(0.02600137149 0.008463885975 -0.03564841754) 195
(-0.04468185506 0.0004470984921 0.02510995933) 4321
(0.04625719845 0.001844282836 -0.03704806822) 179
(-0.0479150209 0.02307056849 -0.00594842988) 2160
(0.0316820192 -0.02500240243 -0.01456105452) 1656
(-0.03508562405 -0.02139986011 0.03917855703) 4862
(-0.008297998814 -0.03633397598 -0.02683594934) 648
(-0.03227221023 -0.01246760945 0.01454307211) 3303
(0.008303264325 -0.02465726718 -0.008142409584) 1991
(0.04262839048 0.003135638806 -0.01024387718) 1778
(0.01118675176 -0.01290143654 0.00823257825) 2992
(-0.02259791615 -0.03080846363 0.02542837529) 4185
(0.02545066995 -0.02348589365 -0.009753746909) 1995
(-0.03071464255 -0.007526616695 0.03652674099) 4923
(0.0421051897 0.01818964396 0.004370525639) 2798
(0.03930665626 -0.003840406094 -0.02352530266) 1117
(0.04222125624 0.007509059149 0.03611728777) 4998
(0.01380638272 -0.002057410157 0.003086316097) 2712
(0.01898110667 -0.03356964287 0.03594060745) 4833
(0.02154960561 -0.02760204299 -0.006117299585) 1974
(-0.01269667812 -0.02549701594 -0.03146331863) 367
(-0.04014603675 0.01713988624 0.03359414828) 4701
(-0.01905947926 0.005159107969 -0.01395393962) 1786
(-0.03233025251 0.01701940048 -0.03465504687) 543
(0.03609037261 0.005036025195 -0.03620634961) 197
(-0.04137107804 0.03314359984 -0.01775672126) 1561
(0.02739904351 0.03029693892 0.02716227866) 4455
(-0.03992008813 0.03705317273 -0.02005373557) 1262
(-0.01054871472 0.0286938685 -0.01816347885) 1547
(0.03422057756 -0.01250541409 0.009619114421) 2996
(-0.02063387894 -0.03724053015 -0.01501002437) 1285
(0.02516039726 0.0002890363071 -0.03006586286) 495
(-0.01986103812 -0.002281931291 -0.02109830105) 1106
(0.003614950404 -0.01259472805 -0.00812965296) 2030
(-0.008364667847 -0.01054972651 -0.03623161274) 108
(-0.03661640736 -0.03658884027 0.006422080453) 2882
(-0.01882477807 -0.03814944249 -0.001052761948) 2246
(-0.001683795344 -0.0120602314 0.001208293864) 2669
(0.0455167785 0.03035175219 0.00429929904) 2859
(0.01863633987 -0.02993033777 -0.01018688985) 1653
(-0.04047977027 0.03032635353 0.02370390025) 4121
(-0.04977880307 0.03974212881 -0.03093486374) 620
(0.04780419643 -0.02057786552 0.007601257769) 2959
(-0.03221018836 -0.02867825645 -0.009311910555) 1963
(-0.002622187487 0.01714377794 -0.001850992331) 2469
(-0.04384434331 -0.01828372535 -0.03582926262) 81
(-0.004648893982 0.03670294199 0.0001685712957) 2869
(-0.01151761858 0.006229155352 -0.02124385055) 1147
(-0.03319545026 0.02979551238 0.01444000921) 3463
(-0.02678456276 0.02551964644 -0.02414961297) 1224
(0.02782952861 0.004087759905 0.008918353302) 3055
(-0.04349665091 -0.008256445568 0.01587160681) 3641
(0.01794999131 0.03602118213 0.01095364546) 3513
(-0.03582213297 0.00256517817 -0.03675042933) 162
(0.02855112175 0.01263112829 -0.01179255601) 1815
(-0.04181156763 0.03052564832 0.01011602295) 3481
(-0.005730180847 -0.01875141466 0.02935651049) 4248
(0.002094645129 0.03005074649 -0.0252778152) 930
(0.0009570776996 -0.02944970569 0.02926831798) 4210
(-0.01431233695 0.01166747442 0.009490977395) 3087
(-0.04653162368 -0.03644492462 -0.03440506918) 320
(-0.02300653447 0.03964773887 -0.01905839703) 1585
(0.01141812522 0.01748303396 -0.01980590739) 1512
(-0.03788721445 0.00790770926 0.001936104446) 2742
(-0.03104359588 -0.0165507696 -0.03200141409) 403
(0.009484637605 -0.02900882525 0.02091849689) 3891
(-0.007007628702 0.01724854011 -0.01745650819) 1508
(0.003260630114 -0.01780707414 0.005961969045) 2970
(0.03522499674 -0.0377520576 -0.01725641444) 1297
(0.002095065684 -0.008503516878 0.03057672816) 4610
(-0.02408616719 -0.007953721129 0.0009760920592) 2685
(-0.03263161119 0.02971114947 0.01740000844) 3783
(-0.01400671501 0.02179135866 0.0246247317) 4087
(-0.03568320232 -0.02241501157 -0.03483093054) 382
(0.02850412745 -0.03855899287 0.02271588288) 3855
(-0.04334573079 0.009423236475 -0.01753774353) 1461
(0.03054186868 -0.02159958486 0.004354505999) 2636
(0.03508197628 0.008076761301 -0.02295863381) 1157
(-0.0370685699 -0.01853035264 0.01500678787) 3602
(0.004941663269 -0.02617158253 -0.00446931784) 2290
(-0.03699622817 -0.02963279465 0.02235104065) 3882
(0.04756609617 -0.01524130246 0.02424048174) 3939
(0.02245297641 0.02406146875 -0.02765590651) 894
(0.03562738321 -0.008001314866 -0.0397710973) 137
(0.0338354094 -0.01592682623 0.03957473406) 4896
(-0.02991513445 0.01652985761 -0.03033717412) 544
(-0.005434555488 0.03266058285 -0.003375326321) 2528
(0.04850364218 -0.03612948885 -0.02736060785) 659
(-0.02961335542 -0.003788087413 0.007602067532) 3024
(-0.01308416327 -0.01436036931 -0.01059128891) 1707
(-0.03426189822 0.03590021708 -0.02211208878) 1263
(-0.04380779957 -0.02439495701 0.02763396264) 4221
(-0.02928317432 -0.01643037977 0.02323970977) 3924
(-0.009257697684 -0.02114324181 0.01026935159) 3268
(-0.02742568654 -0.02938709806 0.003330753948) 2604
(0.02199526104 -0.001375142239 -0.008490871583) 2074
(-0.035848502 -0.02058883077 0.03406668897) 4542
(0.03897472443 0.01164494984 -0.01188602986) 1817
(-0.03399366569 -0.01912808155 0.01938104828) 3603
(0.04303093695 -0.03058608589 -0.03324503736) 358
(-0.02374449736 0.03374767089 0.01900395461) 3805
(-0.0300351825 -0.002995477091 0.02149056771) 3983
(-0.03355970441 -0.006072125303 -0.01175217368) 1723
(0.04603547663 0.02975729662 0.02699009019) 4439
(-0.03250023935 0.02998614308 -0.03749250942) 263
(-0.01304836201 -0.02519065264 0.03975423697) 4847
(-0.03769490538 0.002426428152 -0.0261489019) 802
(-0.03759538929 -0.02179069487 0.02671877116) 4222
(0.006804494232 -0.03335104914 0.0166270287) 3551
(-0.0314578548 -0.03566592989 -0.007848051788) 1923
(0.004561362877 0.02954965156 -0.0143799312) 1870
(0.03870983614 0.02950727554 0.003240186983) 2837
(-0.006809642284 0.007343728568 0.01762815066) 3708
(-0.007440716563 0.03200750838 -0.008880867342) 2208
(-0.04880760472 -0.00578834423 -0.03993060284) 120
(0.008623908388 0.02224918581 -0.03461333138) 571
(0.03570938519 0.03602883737 -0.03178508915) 637
(-0.01407867889 0.02693960399 -0.02093819442) 1227
(0.02918414611 0.01779155416 -0.02566731947) 875
(0.02791802176 -0.0310533442 -0.002667085173) 2275
(0.01630878077 -0.02145247391 -0.01055892365) 1673
(0.00425401677 0.036954566 -0.02724041568) 950
(0.04406646683 0.02674731415 0.00266198156) 2838
(-0.01136666441 -0.03992398946 -0.010794501) 1607
(-0.01255371531 0.03094479604 -0.02516687989) 927
(-0.01057456133 -0.01715905079 0.02724572069) 4247
(-0.03840203766 -0.02565795865 0.01456900543) 3242
(0.04353317952 -0.0325924081 -0.0116590539) 1638
(-0.02383108108 0.004551498681 0.01379449773) 3365
(-0.0318529703 -0.03465609374 -0.02557524086) 663
(0.01677762638 -0.02447625789 0.02217222406) 3913
(-0.03995381905 0.02036561617 -0.004253724607) 2482
(0.04244803884 0.005976467967 -0.03375277034) 518
(-0.04603496232 0.006273445977 0.004433564601) 2740
(0.04934236194 0.0001291296836 0.03069092712) 4659
(-0.02058116178 -0.002527304445 0.003531983555) 2705
(-0.01543042773 0.01962114959 0.003533436214) 2786
(0.04216412418 -0.02150837804 -0.009215611413) 1998
(-0.0145608459 -0.005148555292 0.009038875657) 3007
(-0.03068582379 -0.01367565388 -0.01697520431) 1383
(0.04890712109 0.01792310654 -0.01004068272) 1839
(-0.01314540865 0.02367717248 0.03222941961) 4727
(0.03759687637 0.0292322584 0.02685524265) 4437
(-0.04246260371 -0.03007064525 0.03820271684) 4821
(0.01718727672 -0.03694277089 0.027886313) 4173
(-0.01660018364 -0.03178402341 0.0193349363) 3546
(0.03233530247 -0.03214150184 -0.01562765837) 1316
(0.04781219722 -0.01670322256 0.01136291783) 3299
(0.01699251017 -0.002091717426 -0.03565494217) 153
(0.04429948526 0.01229640297 0.004732730663) 2778
(0.02716905695 0.03460135935 -0.03724321731) 295
(0.0403558375 -0.005193474095 -0.0163093606) 1418
(0.0418507206 -0.02362470197 0.01939238601) 3598
(-0.01069270259 0.03796075276 -0.01548443942) 1587
(-0.04316206238 -0.02266944135 -0.001463963475) 2301
(-0.01850571013 0.02835116854 0.00125312854) 2826
(-0.008217657558 -0.03706476302 -0.01920749585) 1288
(0.0162025891 -0.0190884256 -0.03906969714) 93
(0.03405884547 0.03710397251 -0.02200785854) 1276
(-0.03801415977 0.01825623834 -0.03172912243) 542
(-0.04181275971 -0.03251726398 -0.008303311489) 1941
(-0.01898131228 0.002050450153 0.03287683627) 4646
(0.01028358468 0.03506170717 -0.02466929526) 1272
(-0.04671244671 -0.03182742384 -0.03007877292) 340
(0.00385016526 0.01989783447 0.02085694673) 4070
(-0.02823686971 0.0341878132 -0.03663110833) 284
(0.03097398069 -0.001073695926 0.03862499644) 4956
(0.006038712237 -0.0321762029 0.001388207465) 2591
(-0.004630540789 -0.0295093557 0.01642068887) 3569
(-0.0001855902176 -0.03764782524 -0.03160481688) 329
(-0.04305467686 -0.01717186684 0.02264431574) 3921
(-0.0005277663767 0.005520804802 -0.01746322075) 1469
(-0.03506759029 -0.01347098439 0.01330216996) 3302
(-0.04453930992 0.03108065432 -0.001886156859) 2521
(0.04208576177 -0.000969210755 -0.03618428086) 158
(0.01221809888 0.02174980024 -0.01471635988) 1852
(-0.01804341145 -0.01706073089 0.03903335701) 4886
(0.004605097902 -0.02397961827 0.02199029045) 3910
(-0.0392750333 -0.009024796433 -0.02533866949) 762
(0.04451133054 -0.03546244485 0.02952626628) 4178
(0.003223467406 -0.009093899592 0.003900539885) 2690
(0.03803397982 0.0178390631 -0.02054206832) 1197
(0.008246102729 -0.03738856359 -0.02831860046) 651
(0.01693730399 -0.0284053711 -0.004293153099) 2293
(0.04461635091 -0.0141920889 0.02160503536) 3958
(-0.0352629204 0.02105221953 -0.002593654167) 2482
(0.01664446201 -0.03008527568 -0.03561386217) 33
(-0.01334384168 -0.009270341389 -0.0125012953) 1727
(0.0246918064 0.02049368427 0.02163262452) 4094
(-0.03920199426 -0.01070387656 -0.03091827791) 422
(0.04689246515 -0.003550708402 -0.03118765595) 479
(0.0018127476 -0.005831892014 -0.02031826115) 1090
(0.01389229884 -0.02590318269 -0.006050639681) 1972
(-0.02622005577 0.02243715742 0.02583080562) 4404
(0.04227717343 -0.03677563106 0.02193293484) 3858
(0.0469249632 0.008662189352 -0.02447684321) 1159
(0.02190699435 0.02492639601 0.007738624648) 3134
(0.0442657088 0.02569769775 -0.03520271385) 278
(0.004124249433 0.01226303367 0.01314276049) 3410
(0.01124237061 -0.03490132874 0.01921549676) 3552
(-0.03617200942 -0.004397752604 0.0221891675) 3982
(0.04173006994 -0.03750966217 -0.01363752422) 1618
(0.0450699751 0.03517050979 0.001801162132) 2879
(-0.01072287474 0.01627305465 -0.0190503713) 1507
(-0.0001209550296 -0.01187702673 -0.02248828311) 1069
(0.01238759483 0.02875879226 0.0215514296) 4112
(0.007195600653 0.007260272441 0.03052378096) 4671
(-0.04294570325 0.01814179833 0.0186731657) 3741
(0.04801059881 -0.03928624288 -0.008592925987) 1939
(0.04492826296 0.02347038932 -0.01782553777) 1538
(0.02770686942 0.009791569522 -0.01504121363) 1475
(0.0234103771 -0.03860939994 -0.02951970857) 654
(0.0332409017 -0.01269954789 -0.004209349253) 2356