/*--------------------------------*- C++ -*----------------------------------*\
| =========                 |                                                 |
| \\      /  F ield         | OpenFOAM: The Open Source CFD Toolbox           |
|  \\    /   O peration     | Version:  2.4.0-MNF                             |
|   \\  /    A nd           | Web:      www.OpenFOAM.org                      |
|    \\/     M anipulation  |                                                 |
\*---------------------------------------------------------------------------*/
FoamFile
{
    version     2.0;
    format      ascii;
    class       vectorField;
    location    "0.001/lagrangian/dsmc";
    object      U;
}
// * * * * * * * * * * * * * * * * * * * * * * * * * * * * * * * * * * * * * //


64126
(
(1688.409915 -83.30465135 15.90821903)
(2513.095292 476.2397294 378.1756441)
(2325.67086 270.7605571 313.7598659)
(2098.943574 -114.5033567 466.3237828)
(1865.66004 242.0243627 -93.77782177)
(1500.000761 -187.1953239 403.3273874)
(1690.837545 -324.0244911 -342.7036453)
(2178.258283 80.35752739 -592.6884486)
(2103.505848 245.0542254 108.9659259)
(2543.385654 319.347144 -82.0081041)
(2178.560316 227.3740753 243.1863926)
(1941.732868 -234.5136195 114.9881148)
(1730.166366 -112.2060274 -210.992654)
(2745.596437 357.5848775 -64.85508357)
(2352.827489 411.6513036 214.8356229)
(2059.314312 -211.4812957 160.6161839)
(1952.722061 -152.349628 -453.259477)
(1763.891476 65.17141613 340.7896484)
(2066.2849 -321.9556527 46.05366882)
(1663.818174 187.0679412 -62.01018745)
(2481.832826 235.0342809 101.7482909)
(1798.411379 75.84432259 413.7173685)
(2304.978004 430.864038 -231.2129763)
(2165.528287 -213.3907604 -62.64434762)
(2120.57072 141.9093513 -183.0308297)
(2484.897384 119.5153708 -119.8728589)
(2238.337383 -675.2940432 -278.0877135)
(2205.866683 -356.6908234 -85.21115399)
(2069.587634 382.2190308 154.8081608)
(1972.082454 162.4012104 124.9129934)
(1735.687998 199.9179849 153.5605339)
(1895.115714 51.07330828 250.173093)
(2072.309468 -56.53027317 433.504008)
(1939.391814 -269.9845894 -42.10220969)
(1605.69591 -161.7198463 -514.1149001)
(2617.388489 -139.4108543 -143.0031085)
(1934.892652 -297.3441462 -151.8474798)
(2497.160935 -68.23319321 97.17979086)
(1727.513636 -40.67893441 464.1411386)
(2036.596246 -2.157991973 186.2360424)
(1929.125799 367.5745233 -547.5332889)
(1274.727662 -157.7737894 116.1811092)
(1242.997383 56.35572848 -228.1487329)
(2160.61288 503.0416917 252.216149)
(1634.886488 -5.679672361 87.67999124)
(2120.018091 154.6676191 -479.0187293)
(2194.625996 -297.6944365 59.82807653)
(2275.878523 250.4312057 406.9700772)
(2120.433936 -269.4773645 -86.97462653)
(1769.363456 192.9251512 488.2934285)
(1676.19694 -324.694774 -285.7080489)
(1518.041192 -254.1698642 -4.979190131)
(1893.140665 -169.8644171 -144.3996843)
(1771.619828 12.79395706 95.18015776)
(1848.033548 368.9637623 -355.3369167)
(1571.186438 34.95504603 419.2751934)
(1952.185371 130.9759191 -346.7350179)
(1856.445372 -101.9859349 111.1886092)
(1799.894515 281.7884232 70.01332723)
(2280.657337 160.5859331 85.02822485)
(1858.060761 221.7861306 -13.36041699)
(2010.946641 -127.0125233 134.2054372)
(1824.043954 -167.6283097 175.3232891)
(1716.859949 47.43620496 12.77509525)
(2462.827415 194.458881 274.2760119)
(1973.57446 -37.04529613 35.07535504)
(1736.478554 -292.2773602 -41.84228083)
(2020.155057 -138.0772212 -342.3626439)
(1416.942326 187.7165894 -25.05374553)
(1210.674852 -84.11345797 -242.9963941)
(2519.833307 -1011.151746 -151.5824213)
(1969.87559 -318.5673617 -21.16733802)
(1977.179505 141.5886196 -301.9921198)
(1905.007255 365.5242759 402.4007135)
(2276.349895 -29.35890177 72.38843852)
(2741.572894 244.6542637 220.8509069)
(1922.555866 -402.2351495 230.7541929)
(2061.218963 320.0013838 -226.4856086)
(1855.257614 -74.18532 72.48315393)
(1814.953083 306.7182025 76.72796146)
(1901.837049 61.94143061 -156.9836482)
(1776.952038 -477.5680866 -239.418797)
(1782.695724 377.7712852 167.7353167)
(1836.365842 -365.9584806 209.3242661)
(1847.270893 257.8918533 528.5899261)
(1562.477096 5.213565529 -242.1019006)
(2139.787274 291.7620849 174.7260098)
(1768.130313 257.5876732 331.8494722)
(2314.634417 32.18446136 574.8812356)
(1829.934622 524.702711 -207.8232338)
(1939.0788 104.8644247 -56.48474593)
(1815.642037 -49.88444469 -221.2335136)
(1714.164891 -344.2522109 -449.3493403)
(1833.093527 69.2697697 435.9517619)
(1655.746855 -208.0821817 -231.0825122)
(2150.386064 257.1113131 367.7594186)
(1652.399793 -276.0857503 229.3089679)
(2217.012554 68.15572907 -11.80879822)
(2201.273306 17.45333236 -405.2040224)
(1918.362193 -47.94831948 -522.8343622)
(1779.865214 -584.9206785 -394.2668092)
(2415.312053 132.4152677 54.23899864)
(1894.074446 499.693026 134.0198636)
(2143.119716 273.382681 165.7113513)
(1741.868192 -870.0677761 181.6520702)
(1480.964898 89.11282655 763.8042161)
(2247.748031 -192.7024336 -160.8578604)
(2327.468986 50.34601446 -36.57911233)
(1957.801798 -173.3822219 -235.5925679)
(1842.03104 352.3710897 384.4251168)
(2022.80501 -156.3238477 171.5582359)
(1829.31841 -459.3843943 -228.8630122)
(1834.873005 -63.17114039 67.54907912)
(1843.65763 -85.8283647 -237.0100764)
(2365.35437 -70.90095693 -809.0690797)
(2089.179636 -292.262064 130.5317622)
(2282.813758 130.4879731 77.0494866)
(2388.983971 -106.0890403 171.0612138)
(2084.326499 504.7824173 583.8474728)
(1763.818887 615.4986443 107.4708913)
(1419.058339 -282.2266936 -155.6838067)
(1939.538604 -668.3932324 66.35705419)
(2246.180871 226.6251987 -248.2262238)
(1948.427144 14.1878326 387.9796972)
(2206.228946 -23.18693161 -306.4373897)
(2208.714439 -37.89291107 -175.2642703)
(2093.690315 -186.6677111 -222.4640745)
(1992.002273 -569.3744224 336.7549342)
(2636.100689 446.0738346 -130.6266715)
(2200.229242 -188.9374333 227.2172127)
(2262.774584 -75.85876481 -167.5317178)
(2528.485123 -118.7911663 1.436084753)
(1920.349568 265.0479841 -318.2709319)
(1414.144839 -163.1147473 161.5074501)
(1687.311165 119.6766314 242.6337949)
(1953.299179 -171.7400485 -23.40550203)
(1611.726205 260.2424119 -252.3851895)
(2131.397172 189.1609593 -453.6687906)
(2698.358692 392.0146994 659.3306768)
(1794.07514 -245.7267935 174.2716562)
(1939.220867 318.1732171 249.2492056)
(2325.169276 -290.4336323 -267.6880918)
(1984.224826 26.71928676 -225.9893095)
(2044.182041 -341.7508858 382.0117631)
(2140.77177 -221.7099869 -256.9787539)
(1863.789677 35.61202348 -71.29123574)
(1807.673886 419.3159383 345.9480199)
(1743.374373 62.62102144 -427.1363547)
(2081.004465 64.77963593 117.2928913)
(2353.790408 109.5744477 -180.5090248)
(2211.914077 214.2829909 422.2875247)
(2154.720364 -159.9620525 148.3167446)
(1942.619475 182.8847832 737.3495759)
(1712.009054 164.7841672 -842.0615496)
(1996.330971 27.4655138 -453.0244142)
(2562.613205 -227.905773 5.962700497)
(2122.928665 -541.2489994 -73.8635439)
(2092.272533 337.6155804 -88.84289058)
(2104.401208 335.6549036 -262.9002773)
(1821.131266 13.86719555 212.3484511)
(1553.760088 -53.44056919 7.358261109)
(2110.032587 -334.8747565 -745.6932626)
(1802.036471 -41.03883943 71.66728046)
(1958.496682 -339.134001 -73.50584557)
(1486.814092 220.7589417 -542.7348503)
(1791.524677 -32.76281023 27.64251533)
(1750.374024 42.37251164 606.9296541)
(1885.057858 -132.1521261 -194.7819545)
(1556.031035 99.17209258 -329.2024628)
(1963.919607 174.7967926 -279.1547985)
(2324.755364 458.9757812 -156.4371801)
(1887.514556 -255.1088267 313.3310223)
(2004.310558 -16.86385745 97.9938382)
(2056.351915 112.9250848 276.8966743)
(2170.030554 114.0359345 93.11208964)
(2074.691039 -415.6081457 -741.1532279)
(1772.74431 32.32950864 873.2250551)
(2177.337184 406.5018722 -158.6182792)
(2355.197485 -146.2600124 306.3760487)
(1992.660993 -146.8506387 -92.43791348)
(2061.954953 209.7603814 381.4238527)
(1846.407453 -74.9517515 520.1345328)
(2579.592326 123.7438181 -234.4219361)
(1723.560467 -40.47611169 -273.1184297)
(2002.655312 -227.2679019 -279.784777)
(1046.679939 209.8704516 314.8107143)
(2203.909696 42.30213515 -758.0904331)
(1781.561204 -185.755528 350.4264127)
(1699.423223 -286.6077727 -440.3750096)
(2141.375073 -569.9794687 -422.5225685)
(2367.217814 305.5337503 104.6197847)
(1948.776162 -98.37650108 -121.1230492)
(1823.276135 42.39451303 -333.6350877)
(2025.558361 -251.8427547 58.19800564)
(1855.278767 543.636802 18.77645055)
(1961.490169 88.88737276 550.3385104)
(1561.695173 -294.8429239 -113.4226944)
(2294.448632 -86.3612024 -122.1763093)
(1500.807372 8.159665725 -95.57466073)
(1735.406016 -80.2490602 251.7280157)
(2098.244317 242.7355761 100.3276957)
(1721.14058 -278.6851928 -238.6992568)
(1600.826546 75.93771049 -524.1072479)
(2027.777268 257.0162567 -271.1325349)
(2060.05661 416.5636072 -456.0033648)
(1482.569595 -147.1477482 296.0496945)
(2229.511776 320.1784985 -21.96937055)
(2931.897283 34.94193162 89.60179306)
(2289.100172 -260.9640561 137.4646382)
(1959.679474 453.408689 -169.0563713)
(2120.764302 -421.1634175 193.1957857)
(1992.986563 -127.4897602 183.0724171)
(1960.291386 -328.1718859 -103.2170598)
(2391.105673 -145.1368316 61.31201223)
(2135.064057 382.7638612 846.247861)
(2628.780603 55.54345273 -107.4232081)
(1478.823226 -62.81459389 179.5452939)
(1827.240014 -150.0405912 -265.0498693)
(1751.189948 -90.52845247 -602.1026984)
(1908.374623 347.1913512 -146.2705822)
(2473.100231 -80.01288497 470.2321783)
(1997.076423 114.3440601 390.7362772)
(2300.435241 -17.35058092 169.5841763)
(1686.5356 265.1834939 -339.3587766)
(1891.118563 17.52683429 -583.3052111)
(2216.808857 98.22655399 545.1359992)
(1810.805412 -212.9061665 230.3319612)
(1638.098686 593.4017868 177.1051721)
(1898.591409 -117.1484462 168.3865865)
(1734.186877 -89.87322979 488.8737963)
(1854.180662 -124.8379204 -242.1286869)
(2327.417999 25.87306449 -153.9052351)
(2274.510137 -558.9148108 -71.3586789)
(2250.594973 -574.6348167 -52.39351339)
(2330.2764 -328.0321289 -246.4167412)
(1110.551529 423.0101686 36.77015223)
(2384.525445 -453.9717016 503.6347491)
(1678.557951 -112.6202529 -227.4898603)
(1613.287008 432.8329764 -113.1743043)
(2249.705176 18.84635315 58.88131702)
(1872.227804 -119.1012113 159.2785572)
(2187.249375 -181.9788483 130.3528905)
(2378.214423 536.1896554 129.8969751)
(1621.746138 -723.1902122 -124.2006312)
(1774.165924 -576.5841593 218.9581737)
(1738.864672 101.8313073 134.1909733)
(2018.611721 309.4882576 225.3146711)
(2321.512775 -62.41842281 -356.7962798)
(1542.299626 -373.884307 187.7522857)
(2132.14425 274.5594668 -171.0179207)
(2204.666722 -411.9700626 -359.4654763)
(2396.246737 187.439446 -485.6016545)
(1597.299662 283.7529663 -137.3308875)
(1787.169281 -273.8013845 -99.77207599)
(1634.88318 -503.6768345 -45.67499363)
(2344.357127 -463.3813992 191.6124286)
(2179.876124 178.9481373 24.93871145)
(1950.318228 -322.7778711 260.1566673)
(1635.567789 -57.26191408 193.8604786)
(2343.288141 -579.0560415 -192.8411067)
(1516.1123 103.1843458 -123.2338075)
(1928.986534 264.4464452 363.1416839)
(1828.142556 59.19713904 -252.7300269)
(1956.448338 -354.0014473 -104.8164559)
(2535.86506 11.52160197 -175.2309353)
(2183.39931 -466.4255006 -8.894045165)
(1967.95219 184.7980673 138.2026236)
(2012.591289 441.6517112 -548.8450683)
(2461.256093 112.6839435 68.38900619)
(1768.781616 435.224339 -53.36853004)
(1685.887091 300.3365635 -361.5209358)
(1771.582878 295.1245938 87.18397068)
(1807.874807 -200.9859094 -180.2741682)
(1841.22762 -70.41821979 157.2912693)
(1657.529124 199.7860081 402.3286868)
(1377.097336 -36.27990732 -226.7573441)
(2098.196156 183.4134383 -153.135246)
(1791.068489 763.7687429 165.2410908)
(1639.675164 -184.2198447 126.4495077)
(1829.435456 165.4646547 35.46604578)
(2059.117505 175.3231099 181.4495607)
(2389.31634 72.7310714 180.220053)
(2073.929795 183.8308831 -18.75175274)
(1630.547465 297.9545268 -704.8039658)
(1624.699146 416.7245358 -193.1970589)
(1719.901152 240.7256057 239.5151729)
(1973.124358 465.7129649 -77.99568723)
(2160.412255 97.84241228 -19.70339412)
(2027.3173 70.38611977 -568.6758139)
(2264.387239 -12.1110385 -326.4639599)
(1699.083773 -303.3514555 516.1691683)
(1772.535897 -201.5548071 -218.4599752)
(2094.634311 558.6346459 -201.7962078)
(1406.018194 64.99479756 -426.9349076)
(2181.845424 318.0080775 14.88954688)
(1720.358514 13.92198999 143.6359948)
(2266.33362 -256.4429686 4.838564445)
(1873.23475 -602.980358 448.4669911)
(1746.087588 48.6093861 -244.9337303)
(1899.156535 -419.9671065 496.4215529)
(1772.035592 80.21706133 251.5550177)
(1756.071804 -119.3065499 -259.3654753)
(1310.114409 -27.02528353 -215.2481473)
(2291.158369 -231.4614953 -127.705125)
(2048.383472 401.7109874 -38.45016692)
(1929.673748 124.0575795 -379.8206689)
(1897.515987 98.75013545 209.9705732)
(1767.384869 -591.0591696 -272.1211274)
(2005.692663 85.84747306 68.561041)
(1790.372421 283.1700272 328.6930652)
(2234.526785 -225.6256413 -884.4953174)
(2224.675319 -242.9257447 -222.1540142)
(2116.416232 833.4034572 -37.36396063)
(1731.674844 3.899507304 -167.8290537)
(2041.724399 139.5072345 -382.2224249)
(1908.869965 -45.79688936 517.8822373)
(2158.769075 72.90199563 -574.4403486)
(1925.729914 76.16651456 -215.1965807)
(2217.422764 59.12693634 -241.5390308)
(2133.785505 191.5777162 -160.0271646)
(2134.972667 242.3912738 461.4218605)
(1805.891472 -104.6877076 447.9897052)
(2322.933276 87.14995361 -153.1052209)
(1971.3578 -91.34093631 -314.1653504)
(2008.378533 -396.3451699 186.5969294)
(1769.118723 -79.13913434 130.4889838)
(2177.161203 278.8578674 24.37415324)
(2039.239923 327.1357284 502.2459372)
(2680.509966 -19.4786773 139.4768968)
(1702.42177 465.3570469 341.4026754)
(2004.525565 -352.0785739 327.6857681)
(2675.99075 34.01889855 1.51385652)
(2707.113645 84.44706217 -67.29841704)
(1450.610112 36.06959161 -194.7355012)
(1840.613099 151.3643392 217.4628531)
(1830.448257 -342.2105138 -230.6066804)
(1808.998317 33.29478313 -110.5380227)
(1861.104749 -119.8517318 101.8552646)
(1793.149824 309.2825918 -17.29698592)
(1474.630867 327.1924039 134.6040486)
(2169.236098 -94.15619737 -235.2874897)
(1969.631348 93.31731893 255.0775689)
(1871.385847 -43.98945491 -96.22533978)
(2061.498571 303.3035851 -15.3153847)
(2477.470115 934.253703 114.6796834)
(1910.138047 184.6807675 724.7622201)
(2515.436865 -13.46701421 -259.4624239)
(1783.490972 14.24404036 334.3290812)
(1966.725202 195.6667502 260.9564207)
(2252.415148 -27.6483953 99.96504061)
(2068.643297 -67.75912084 -192.8055601)
(2514.481117 -45.91541697 12.18075322)
(2235.045348 110.1607731 119.3229023)
(2278.336215 -251.8440257 -31.50146279)
(1878.253383 166.1577889 352.8875659)
(1856.02587 16.11800156 -103.7803007)
(1440.107647 -97.34962715 -47.11934007)
(1771.99474 -82.89068381 -149.8754179)
(1804.738322 151.8889347 79.57457713)
(1181.535071 -176.1377044 -108.7014631)
(2606.801745 258.0600106 -36.89313133)
(2007.683858 -147.1002376 -111.7958087)
(1474.999054 366.2474005 -129.5219065)
(1873.66222 -103.8617581 54.27243231)
(2056.97307 -699.6163746 502.387381)
(1941.631954 -136.4850375 198.1670031)
(1713.520099 -282.0791669 40.96235092)
(1534.170162 -569.8882509 310.7849294)
(1911.883853 334.6195036 72.39130143)
(2227.306361 -400.6801638 -106.5415128)
(1890.16486 84.13749779 33.34571194)
(1720.701368 -110.8686114 -77.19863198)
(1721.764169 76.17872317 6.665552991)
(2253.961364 -390.6129256 0.8485458121)
(1980.288843 135.1413617 -242.2331968)
(2175.940059 -163.4155523 185.4170649)
(2135.009884 469.8508573 -0.3800245904)
(1594.607793 -248.4450931 -153.3417818)
(2124.200049 -312.8389647 81.68187844)
(1429.00849 281.4323111 83.38283277)
(2317.708672 467.9509372 156.607121)
(2372.214139 -54.88042594 674.9188957)
(1990.731821 172.2492232 822.5668398)
(1679.845907 306.3542707 219.1870033)
(1857.934511 113.2567071 44.04261921)
(2130.550484 497.1273822 -628.2568919)
(1653.304864 -499.7640903 -49.51948085)
(2210.234147 177.981989 -424.4105387)
(2460.252361 -169.3736887 142.6215185)
(2524.468024 -207.3286332 -119.3185684)
(2213.215404 -258.4774801 -76.83230182)
(1853.450404 450.2488814 46.31727826)
(2365.441522 -447.1319788 295.5387663)
(1969.930103 33.16994996 194.6875297)
(1371.713495 224.1560608 355.9119547)
(2306.278563 394.3531018 186.4118405)
(1997.717228 279.9915612 184.7310316)
(2007.342521 -213.2268839 327.508931)
(2292.591881 86.43884021 -381.6463285)
(2231.754094 331.2337183 129.023953)
(2097.491168 -375.2351369 -17.00204165)
(2005.284383 381.5891139 451.7895747)
(2219.557285 -32.68637744 -178.2311118)
(2126.713322 -148.4131755 93.44775024)
(1698.300421 -36.700979 -295.3184083)
(1736.416814 250.500737 -183.0507127)
(2018.177878 525.8502323 -367.7831417)
(2179.487995 -258.1958582 -233.4984109)
(2273.210641 -486.7106977 -242.1438615)
(2537.448776 208.6622617 234.4978123)
(1707.31369 -202.9209657 229.9218491)
(2378.372396 81.27334409 26.66083143)
(2361.062217 383.5221848 -23.80901873)
(1477.97949 -244.7080243 86.93954864)
(1888.309457 -312.6220657 -292.7296996)
(2003.294607 -467.6700741 -33.4654871)
(2062.658027 110.4642885 91.73696179)
(1744.024384 -84.18399919 187.8195002)
(2424.617953 -788.7433415 -37.15355471)
(1683.438316 40.75734672 166.1644639)
(1725.69685 -710.3614584 -53.7832514)
(1720.287883 249.3091462 -92.23254964)
(2116.267608 -43.32536677 -63.08607505)
(2264.089653 368.2693921 -194.575091)
(2101.72073 -431.1959181 -190.1738181)
(2464.960205 88.39372309 134.8020948)
(2316.398916 264.4874729 35.41770743)
(1786.761871 -51.36918131 -203.4443669)
(1694.224958 187.2891759 270.3573864)
(1868.516749 -86.54761061 -250.403465)
(2450.415523 372.5522756 65.34061272)
(2262.965123 446.6720544 -577.67509)
(1817.351509 -112.2018381 -254.4534141)
(1800.288867 -617.4808028 -70.55907941)
(1574.121645 -23.09903332 268.4265594)
(2380.895477 -113.0484026 -447.3532907)
(1873.309404 -61.43400965 134.0485079)
(1828.530436 379.4995919 -74.39186038)
(1909.45971 143.0708305 484.1037933)
(1847.925751 -342.7829961 365.0108405)
(1502.8239 -130.4428921 172.0092444)
(1912.100733 106.2907915 305.1764369)
(1970.834891 -168.0409307 -302.7467588)
(1277.159565 164.7319995 -4.119267278)
(1793.618186 -29.96852251 191.2361095)
(1960.13433 784.0884298 -26.59736734)
(1669.816365 343.8022867 -388.2999316)
(1990.964983 -180.3742058 -238.6973349)
(2335.994402 458.0757785 33.69498393)
(1973.417509 -91.16038804 58.14158078)
(2172.987006 294.6259082 -201.4235374)
(1750.954934 48.33596946 490.9319161)
(2073.144582 441.8460214 -132.2358058)
(1792.813094 98.38739562 413.9914103)
(1654.432397 85.24345787 -505.2135942)
(2245.384545 -252.867279 -229.9996148)
(2339.28873 -435.4956647 -168.2852516)
(2022.025355 316.0114002 134.7849382)
(1827.297847 34.91416313 -479.9569553)
(2512.301376 395.4187593 162.8815677)
(1824.574805 499.2702073 -218.1856664)
(1729.670768 761.9421549 102.9532924)
(1676.967739 -261.9714337 -815.0698618)
(1869.084485 88.65662802 -7.277566844)
(2141.48629 563.8795958 79.58826109)
(1750.848218 209.8953818 -607.6266547)
(2072.809435 -247.7207101 -273.0447127)
(1754.527876 49.97921317 409.2118418)
(2001.302869 121.5137327 -74.1785631)
(2441.991742 -174.6024225 -147.2692041)
(1984.990263 19.78566806 79.32436886)
(2501.80278 -193.1669 -388.5770697)
(1426.604434 -308.0695995 109.7654765)
(1710.135918 -58.0726533 -91.67821505)
(1960.866549 -75.45262283 15.73737793)
(1796.756806 164.2214163 297.9355555)
(1797.248831 36.78967945 327.3059163)
(2410.85105 206.0634512 -266.3452612)
(1788.363802 -215.8931917 -303.7199956)
(1779.148112 494.3255837 731.9800893)
(2258.70052 -585.6404398 63.39137437)
(1867.694503 -486.8801918 -192.3210478)
(2616.427226 -195.3851413 -115.5880161)
(1533.815649 -447.2681183 130.683308)
(1510.637068 -348.59251 -164.1949676)
(1960.923651 199.9425826 -160.1829173)
(1970.648795 17.34718288 38.00702171)
(2484.989031 -246.9923387 -507.2216494)
(1858.727808 -99.87561074 -571.0906282)
(2069.284389 47.76626966 -51.56227856)
(2203.807742 304.7729454 -111.5249002)
(1596.562443 109.3522989 -182.5673454)
(1837.505408 41.80833614 92.70317077)
(1950.098152 -315.1717219 123.7987871)
(1725.100094 -401.4797641 592.881834)
(2046.929349 -55.8568173 -312.0726177)
(1799.116159 79.54453212 475.3657966)
(2069.513044 18.69431623 -58.21317571)
(1710.176481 -265.5067901 3.892194321)
(2348.132022 -373.6126131 468.8795229)
(2378.469381 -255.24004 13.08771705)
(1827.519847 -104.7173092 44.43723884)
(1928.943117 226.3442928 -178.8652811)
(1874.042875 13.57031503 23.90058473)
(1789.166322 39.53998814 585.0120786)
(1864.004151 217.9304867 -458.9635543)
(2475.971154 113.3545632 -775.020709)
(1612.456127 65.34757168 85.80825882)
(1521.884913 252.8117179 84.54489846)
(1517.227988 -254.0878965 -87.92377663)
(2517.071342 -174.9259859 289.7067153)
(1970.32888 0.1758972541 234.4737259)
(2254.765444 -48.60757645 169.704474)
(1353.508785 75.44542169 -30.33625051)
(1859.254263 330.6851086 -167.9818593)
(2558.647102 -178.6135421 474.7481085)
(1982.758321 -229.1780612 225.9696403)
(2077.489685 211.4330181 333.4233256)
(1624.843541 531.4151571 -533.0504829)
(1764.346943 -201.8803842 -72.60853931)
(1783.979918 -54.02556853 21.41097182)
(2180.959282 674.5763985 -205.7275863)
(2047.708156 293.5251317 49.28538185)
(2182.404011 310.2859761 -91.21259042)
(1480.090606 -529.9595766 -98.75101822)
(2303.380563 111.9249674 -41.72973295)
(1405.076007 -116.9033936 -397.7252065)
(1908.227044 -39.64299368 48.52222396)
(1840.891004 -147.1788099 -613.3251584)
(1754.857761 358.2729148 -119.3196193)
(1940.335566 35.15025502 287.8067027)
(2043.175752 -299.8951522 124.246798)
(1812.51564 -184.0304999 -109.6143281)
(2133.840169 -96.99939959 12.32712191)
(2023.456208 -93.2794148 -109.3430477)
(1756.587455 -359.1044069 -215.5630737)
(1789.054914 -36.39051416 -92.20939233)
(1850.477003 -403.8471843 115.9367383)
(1878.540062 -306.6064153 422.3476706)
(1767.695856 -163.6321088 -56.75051612)
(1753.953539 -258.8995488 160.8815775)
(1720.362578 -2.483831954 -125.0607874)
(1918.022086 396.0737446 -60.77410425)
(2153.64643 218.1061039 -356.7974994)
(2208.696142 542.0275745 -232.6601764)
(1906.599114 -467.8279104 271.2999484)
(1684.17409 -7.319667316 50.2586659)
(1940.239809 348.8277516 -343.9494305)
(1915.237866 135.1715495 -614.2480229)
(2328.449685 -36.68799259 311.8711317)
(1831.793496 -21.87539163 369.2218964)
(1516.686868 179.7089567 -210.6064586)
(1744.271656 -127.0022723 -257.0786886)
(1690.321949 -399.8061572 -62.19929916)
(1213.57958 102.1396913 89.01103269)
(2060.770747 39.16591351 10.41293805)
(1832.923286 -554.3833855 285.5472362)
(1878.462066 -136.3406593 437.2756521)
(2141.987707 420.8871542 220.8060199)
(2271.168064 -199.8638874 -53.05398703)
(1733.811268 207.7780792 343.212948)
(2094.689268 361.1094968 -323.3905524)
(2312.795354 -354.3878735 256.2808157)
(2132.655883 -33.08810915 -557.4862995)
(2207.354956 60.55342286 -141.5897783)
(1603.596989 -181.527516 -14.30862773)
(1746.852297 -179.8084683 -169.9779844)
(2376.136519 362.6855854 335.2792424)
(1921.09149 714.4311303 -85.940971)
(1700.115249 492.0887043 85.96383503)
(2097.410633 -19.72166524 -61.50715857)
(2212.618035 -305.6350949 40.19214381)
(2037.72023 103.4045962 270.4467558)
(2252.890117 -82.75561475 422.2389229)
(1838.15908 257.5455667 235.1688572)
(1529.07587 281.3881944 79.48090887)
(1476.742839 178.2572521 193.1515883)
(2468.010712 70.18294604 -172.5917624)
(1784.559836 -173.8957393 -429.8989262)
(1863.733999 322.9012204 -215.2810312)
(1761.214469 203.4428561 0.05722836029)
(1304.498926 -155.4501554 -160.3276277)
(1636.869176 370.648252 -286.8932139)
(1727.433847 198.1668576 590.4334646)
(2173.914091 111.0625836 -53.44564017)
(1961.577804 307.9776504 -698.1267658)
(2083.969212 372.0288883 52.53561849)
(1578.977738 225.0365715 -76.46190087)
(2235.254125 -25.55222549 -313.007459)
(2015.370771 291.7242267 -504.4276591)
(1377.253047 76.0299852 7.74960405)
(1809.996728 388.2659393 83.96987417)
(1886.744205 555.7301599 91.8136274)
(2478.128101 -160.481825 398.6085361)
(1569.200329 -52.50614436 235.5414232)
(1900.937912 586.381359 389.227995)
(1745.704287 -122.4930942 -76.05485282)
(2157.249186 -9.848734505 -216.0776088)
(1624.116001 405.1234201 47.74829802)
(2669.806722 367.1656374 -209.4483761)
(1564.219957 182.3327431 -239.2654043)
(1901.053329 -419.7816929 -187.7572583)
(1579.363336 -431.020359 -215.4070368)
(2086.133603 4.109945064 132.3241243)
(1756.238476 -672.0972612 -483.6105762)
(2437.738869 326.605437 -349.1630981)
(2112.761568 -75.54963894 -270.7888486)
(1639.312124 -65.78064754 -110.5945678)
(2038.453535 20.68084518 -251.4904557)
(1718.995198 233.0605034 292.9488237)
(1701.79435 -94.53441902 97.10071459)
(1314.300215 185.9297168 -312.6513157)
(1594.763281 88.70060392 546.1590426)
(1941.148317 106.0802363 70.4659964)
(2248.470608 -388.2810553 202.9348872)
(2259.012172 518.8177953 245.6981077)
(1616.970342 -87.60584427 -104.6462221)
(1663.13156 -40.89155634 289.3655716)
(2380.056466 255.3285358 176.9166358)
(1533.085576 419.2991236 742.7068931)
(1794.691166 136.7264363 -230.1366922)
(2069.877118 -145.1434147 476.7510708)
(1809.779831 291.6685273 -280.6829704)
(2342.702955 135.1888802 346.1586423)
(1576.512561 -124.8726459 308.5875085)
(2402.925751 45.03006729 -756.4518004)
(2431.049905 377.3419905 36.85015263)
(1996.615126 -822.9155349 463.3223907)
(1669.209508 -207.1379308 -221.5521638)
(2147.659652 62.04501734 -274.7671897)
(1903.708099 206.2016389 208.7568178)
(2049.146877 199.2242734 178.7530242)
(2076.496888 -14.12776581 63.18550012)
(2014.100029 -244.5530542 36.8225671)
(1867.825812 -220.098031 -177.9483242)
(2591.440075 -395.151491 -153.6908463)
(1950.453104 -79.66406305 -42.15619357)
(2015.60513 -131.9873538 -493.8827303)
(1908.954072 -329.6643348 218.2915989)
(1731.817659 -54.8470602 -67.04210401)
(1667.761342 -390.6351206 -44.38038862)
(2120.436839 239.8861224 -214.7538951)
(1958.928756 318.950721 -207.8870754)
(2172.462905 -68.66388042 55.93252171)
(2180.209418 413.7544395 -276.8345594)
(1913.804772 -59.61989764 157.5746211)
(1494.901172 567.8210783 -9.119268559)
(1689.296704 -53.6429769 -213.7186889)
(1964.978073 -49.85862426 120.7655248)
(1697.226552 -138.0391668 196.6294352)
(1814.264034 54.01289014 435.3244627)
(1178.276388 168.8615353 -45.44326521)
(1843.739907 -305.5542763 -78.6045585)
(2454.178044 159.6560766 487.2669064)
(1735.137294 242.8602991 -460.476073)
(1713.187232 -313.5116636 -568.1617898)
(2270.961938 -220.9783174 -187.7279849)
(2358.081261 -374.8497856 215.8804232)
(2291.68631 689.6601051 348.8780668)
(1753.739444 -50.23721878 102.9832264)
(2359.576983 433.1176135 445.4769986)
(2068.66559 -245.9569664 404.3099275)
(1554.430142 -323.5863099 -195.5371146)
(2503.53333 282.730299 80.66021231)
(2068.025071 255.6630483 -227.7860183)
(1794.639608 55.65070853 -84.51089201)
(2061.460419 -336.4718229 -120.1152162)
(2143.578716 112.1307872 303.3598063)
(2105.521758 -256.7973795 -329.9038762)
(1971.691608 227.8771023 273.2685227)
(1898.960438 304.2433009 -42.24750987)
(1702.07265 -36.99705824 139.3466266)
(2230.826394 195.6911948 -176.3180274)
(1912.532098 138.7481926 118.4132516)
(1559.769313 -89.07246088 738.2584236)
(895.9551862 122.5811523 72.47856692)
(1776.289598 -361.1438254 220.6719232)
(1820.999371 125.7837472 -412.7104871)
(1747.949211 68.70865543 -127.3358337)
(1717.606563 -166.7546914 534.5262339)
(1601.712269 408.2670623 -489.2758962)
(1786.024531 50.75341919 -27.01949154)
(1786.853866 297.0935309 250.2183963)
(2227.963697 -216.1437865 109.1851829)
(2363.500702 -185.9012222 64.69575948)
(1926.174102 388.4365422 120.8565644)
(1979.008963 -49.47707693 -313.9480071)
(2184.915494 192.8864064 152.3844392)
(1475.531221 -17.63519065 229.0817996)
(2104.392813 145.0404566 93.76016918)
(1938.919151 -432.1266944 415.8129061)
(2003.411615 173.7866644 -138.4553027)
(1832.481708 94.57028708 -31.44542917)
(1854.053214 149.2039341 -432.5896224)
(2433.152592 -288.4742944 103.950238)
(2112.29099 82.29621368 -291.8084223)
(1786.59221 -43.57371399 425.1830265)
(1635.65958 73.82611206 -556.0944617)
(1766.2846 -139.0041073 -389.2308768)
(2346.754277 362.4364364 -56.69947649)
(1947.672407 -133.5431223 197.1442784)
(1912.340089 340.5993798 299.0946499)
(1781.369708 -64.51931619 189.883876)
(1855.909582 -190.5872248 274.9203125)
(2328.768644 -351.9875354 -111.1324553)
(1776.451156 3.707694637 -490.8225952)
(2151.094409 116.1941873 -250.2914115)
(1903.518147 -240.1616433 -15.868883)
(2095.460303 -260.0558477 250.9947126)
(1427.20836 436.472104 502.4444679)
(1725.809847 363.2918433 249.6102733)
(1637.232909 90.51210726 135.5033799)
(2460.450333 24.80823907 -228.4740874)
(1742.977019 236.9716147 -52.4346079)
(1875.34958 -267.4665767 -360.5038465)
(2317.539873 -90.38322361 38.36844631)
(2030.171662 337.6686183 511.1067032)
(1622.726871 177.531789 9.115162521)
(2159.691069 -110.1224202 -355.1743637)
(1840.141472 268.3935683 -346.5602223)
(1868.620899 -26.22034287 -68.60910688)
(1523.55415 47.77108615 262.5724969)
(2313.405643 -74.92797892 162.9527458)
(2263.059415 23.72669372 218.8600226)
(1913.87293 546.3789866 307.3220645)
(1592.676478 0.2961060148 -269.6397757)
(2061.666748 62.83563507 319.9624721)
(2045.83599 -147.8729127 -33.04900458)
(2038.677763 -54.58041274 -255.0559438)
(2481.864639 318.538586 -27.64496199)
(2464.177513 331.4587617 350.0842163)
(1445.179556 -382.9825587 -729.7348974)
(2150.420157 427.3214828 83.65171345)
(2604.244995 79.78443992 220.8564265)
(1450.395509 599.3047022 33.18785666)
(1955.035238 122.1468029 -397.1582115)
(2052.172577 468.6787061 193.0214688)
(1581.064919 562.8328559 -214.7223671)
(2242.364761 -27.86484905 -107.868638)
(2442.576678 -83.05736322 -541.6680976)
(1476.456706 -79.84695906 -89.90424859)
(1921.018698 -348.9785118 -462.5926862)
(2113.186038 132.9613458 -389.0149456)
(2360.955378 -441.9232953 -64.79784415)
(2102.572184 -504.5789119 290.5557772)
(1992.776137 -73.3866261 17.22493072)
(1771.147037 194.1266308 580.5727687)
(1699.646852 -287.9742795 319.6346715)
(1894.929119 -341.6260752 -532.7218523)
(2146.636347 -498.4147479 -208.5639993)
(1628.409256 -335.108667 -440.5354336)
(1605.644233 516.9974448 22.32466678)
(1897.817598 -9.607621523 127.0490885)
(1924.523384 -29.11287945 86.03841145)