/*--------------------------------*- C++ -*----------------------------------*\
| =========                 |                                                 |
| \\      /  F ield         | OpenFOAM: The Open Source CFD Toolbox           |
|  \\    /   O peration     | Version:  2.4.0-MNF                             |
|   \\  /    A nd           | Web:      www.OpenFOAM.org                      |
|    \\/     M anipulation  |                                                 |
\*---------------------------------------------------------------------------*/
FoamFile
{
    version     2.0;
    format      ascii;
    class       scalarField;
    location    "0.0006/lagrangian/dsmc";
    object      ERot;
}
// * * * * * * * * * * * * * * * * * * * * * * * * * * * * * * * * * * * * * //


64126
(
3.238556264e-21
9.978213987e-22
4.454407379e-21
1.781475363e-21
1.24080808e-21
2.425485722e-21
2.405489946e-21
7.202696026e-22
3.25982773e-21
1.330304552e-21
6.987630503e-21
1.091089526e-20
5.44375681e-21
3.045317517e-21
6.7520206e-21
2.01618764e-21
4.963820404e-21
2.374469117e-21
3.254030681e-22
1.100610426e-21
1.557798729e-21
2.374267025e-21
1.475667553e-20
4.146220594e-21
1.059612321e-21
9.150543779e-21
2.558294428e-22
4.439971588e-21
1.256330236e-21
1.07971833e-22
2.292459309e-21
2.315492869e-22
1.947313897e-21
9.389273012e-22
1.472272819e-20
3.093816658e-21
4.117884445e-22
3.008797159e-21
1.165365256e-20
1.406955938e-21
8.911626789e-22
2.64459312e-21
1.168342187e-21
5.769636699e-21
1.428982218e-20
1.2725203e-22
6.368436929e-21
7.557748539e-22
4.485324824e-21
2.375501973e-21
1.041157917e-21
1.606892584e-21
3.123037201e-21
5.141802027e-21
9.058726533e-22
2.74007587e-22
3.889544154e-21
1.983028581e-21
6.908168546e-22
6.284349481e-22
4.438669372e-22
1.145175002e-21
2.126888847e-21
6.265804642e-21
2.414801399e-21
2.204587389e-22
8.381355957e-21
3.601659898e-21
9.748527282e-22
7.002591788e-22
1.55394589e-21
1.475802003e-21
2.925234529e-21
7.394388294e-22
1.85665246e-22
1.166769644e-21
2.705677547e-21
3.555729818e-21
4.092073954e-22
3.445945928e-21
6.361755329e-21
4.816591556e-21
9.405646476e-22
1.11020016e-20
1.88246265e-20
1.340959872e-21
1.390850648e-20
2.19875517e-21
1.283466551e-21
1.473988689e-21
9.976432921e-21
6.457427706e-22
1.917411062e-21
1.551330531e-20
4.639714688e-21
4.135133615e-21
6.233654207e-21
1.227613794e-20
4.063575809e-22
7.914861496e-23
2.886303253e-21
2.40544991e-21
4.115508511e-22
2.292012651e-22
1.145916975e-20
3.718893816e-21
1.523986228e-21
1.664220804e-21
7.342489374e-22
3.466504075e-21
5.695126467e-21
1.3294224e-22
1.946596679e-21
2.60205807e-21
9.010373373e-21
4.317502315e-21
1.602528967e-21
5.908544043e-22
5.406588795e-21
2.173690948e-21
1.674026906e-23
5.730271656e-21
3.648511481e-21
1.324178117e-21
1.33044072e-22
4.446021198e-21
7.480507639e-22
1.628495823e-21
1.822896512e-20
9.859044718e-21
4.132481559e-21
2.212919238e-21
1.824406392e-21
8.053353757e-22
1.676998913e-20
3.878921036e-22
6.823720817e-21
4.126026693e-22
6.003187151e-22
1.323291821e-21
1.179471975e-20
1.533268236e-21
1.145766863e-21
1.18125483e-20
4.913683754e-21
4.796847291e-21
4.677848901e-21
5.004091172e-21
2.580374889e-21
6.891230159e-22
5.679806098e-21
2.631329984e-21
2.783653307e-21
2.883080766e-23
5.740209779e-22
2.435054357e-21
1.080477413e-20
3.077953896e-21
3.110513229e-21
1.363188553e-21
2.258974636e-21
2.670901138e-21
1.130493872e-21
2.77588899e-22
4.166065821e-21
5.425537255e-21
6.107687055e-21
3.192300054e-21
1.126393405e-21
1.67756936e-20
3.048422403e-21
2.532628796e-21
7.545005672e-21
4.504417976e-21
2.909389841e-21
2.764020947e-21
2.709319874e-21
1.019098654e-20
5.5564748e-21
2.551282922e-22
7.586965373e-22
8.008451053e-22
2.87111733e-21
6.316678549e-22
9.303651334e-22
1.77227956e-21
1.890076111e-21
6.583567007e-22
1.510463674e-21
1.151786325e-20
1.918794327e-22
3.994259364e-21
4.524590106e-21
2.354402046e-21
1.228701515e-21
1.035592702e-20
4.733320782e-22
1.635569077e-22
5.684148043e-21
1.455080873e-21
4.559651083e-21
1.260688507e-21
1.008745632e-21
3.267073272e-20
5.103277103e-21
1.602291709e-21
2.54808341e-21
9.565416166e-22
8.859741784e-21
7.705787201e-21
2.736017146e-21
3.484796703e-21
7.172129698e-21
2.478148339e-21
2.469911704e-21
9.902070123e-22
9.850093977e-24
2.078867017e-21
3.895407955e-21
1.678688819e-21
5.330952493e-21
1.153354392e-21
2.307156322e-21
6.242212253e-21
1.948973419e-21
9.434409937e-21
1.112725066e-21
8.964998521e-21
1.347574261e-21
1.699121559e-21
3.174919128e-21
3.959506981e-21
2.458563231e-21
3.141940357e-21
2.943088094e-21
2.689386367e-21
6.833486248e-21
2.933849585e-21
1.711910242e-20
3.959022214e-21
4.412120308e-21
5.724024456e-21
3.648805784e-22
1.913342922e-21
3.859500976e-21
2.746058558e-22
9.856166402e-21
4.663158068e-21
4.299938175e-21
1.974055968e-21
2.431064362e-21
6.029525609e-21
7.136676888e-21
3.057810929e-23
6.483875401e-22
1.903038576e-22
2.356310707e-21
2.704227315e-21
6.864999194e-22
5.489498134e-21
1.975966391e-21
8.018302809e-21
2.733653145e-22
7.017649619e-21
5.04627475e-21
1.309634944e-21
1.071816817e-20
5.062901399e-21
6.551010662e-21
1.162256782e-20
2.882303267e-21
3.227942819e-21
3.505711315e-21
1.044280954e-21
1.402553735e-21
5.45058466e-21
3.298981116e-21
9.234290782e-21
5.627246201e-22
3.252301325e-21
3.042842668e-21
6.70087814e-22
4.267127526e-21
1.64069342e-21
3.347603379e-21
9.709266794e-21
6.46077003e-21
5.999510702e-22
7.986899878e-22
1.329336894e-21
3.498915072e-21
7.107561455e-22
4.79296003e-21
1.953648244e-21
1.492164994e-21
4.069101739e-21
1.116610439e-21
3.593186471e-21
1.906093972e-21
1.387515914e-20
4.392489203e-21
5.382281671e-21
1.064250364e-21
3.132354704e-21
2.474703884e-21
5.640447794e-22
1.986016486e-21
6.134822054e-21
2.425772729e-22
9.881575418e-21
5.587617906e-22
2.395686206e-21
1.825831874e-21
2.881388429e-21
4.244050631e-21
8.004694516e-21
1.751455836e-21
1.905436131e-21
6.137241467e-21
1.450445969e-22
9.164368286e-22
2.215030344e-21
4.888929161e-21
1.085380182e-20
3.869021188e-21
9.029383085e-21
3.709534862e-21
2.463958831e-22
2.215870615e-21
2.133579044e-21
3.291448037e-22
1.0800645e-20
5.767287678e-21
5.196292465e-21
5.458842225e-21
1.194681487e-21
1.107934731e-21
2.339652e-20
9.703179361e-21
6.671454217e-21
3.903254219e-21
1.528716555e-22
7.228379439e-21
8.946163362e-21
1.097388997e-22
8.955327588e-21
3.570901467e-21
3.797890519e-22
2.70554755e-21
7.927446518e-21
7.916976404e-22
1.019622892e-21
1.393301354e-21
1.052958523e-22
1.521982284e-20
2.671415552e-21
8.553508588e-22
1.083599646e-21
9.639814027e-21
1.40114308e-21
2.907518926e-21
1.587061968e-21
4.453903981e-21
1.560941562e-21
5.900763417e-21
1.530301554e-21
3.588014081e-21
7.54893273e-21
6.33029573e-21
5.719253743e-21
1.251701728e-20
6.69386652e-22
1.81555837e-21
9.834410678e-22
1.665909137e-21
5.591856755e-21
3.195754405e-21
1.359453042e-20
4.530340667e-21
2.937520495e-21
3.903554905e-21
2.215388058e-21
2.236128108e-21
1.853687913e-21
1.066095271e-20
3.799875167e-21
2.658160586e-21
7.237868998e-22
6.531431389e-21
7.334823671e-21
1.325453594e-20
3.008918005e-21
2.126645847e-21
9.009973852e-21
3.432056072e-21
2.589630505e-21
2.656798504e-21
2.63578159e-21
9.430933732e-21
5.606766567e-21
3.054479058e-21
8.738467792e-23
5.393981095e-21
2.374934898e-21
1.040747096e-20
9.504082507e-21
4.792025425e-21
1.046273972e-21
5.863735972e-21
1.40790944e-20
1.363083515e-21
2.273205147e-21
9.300966364e-22
1.44842756e-21
1.333725001e-20
2.741750975e-21
1.108824546e-20
1.174419239e-21
7.901570293e-22
8.147262047e-22
8.633130717e-21
8.390955819e-21
1.276208137e-20
4.700252251e-21
6.705003599e-21
8.098150155e-21
6.525134187e-21
3.898705155e-21
6.261778163e-22
4.867883924e-21
1.6285163e-21
1.618507543e-21
1.196707662e-20
6.399993773e-21
9.466196201e-21
6.260421136e-21
5.188880175e-21
1.329337189e-21
1.19698249e-20
3.295865075e-22
1.533859818e-21
2.517571793e-21
1.027393764e-21
3.490958151e-21
2.216111644e-21
1.265735032e-20
9.143816406e-22
9.002213592e-21
3.786167764e-22
2.227928912e-21
8.119610707e-21
7.198364457e-21
1.412954437e-21
1.60950907e-21
8.137007659e-21
2.327701343e-21
2.072361146e-21
1.673769801e-20
5.284573266e-22
9.375335219e-21
1.488351951e-21
1.534430075e-21
1.277282886e-20
1.431370903e-20
4.565412743e-21
5.866684893e-21
3.988652502e-21
9.475614776e-23
4.345172274e-21
1.712876506e-21
1.191795617e-21
2.452564478e-21
7.995873582e-21
4.875657392e-22
4.291554057e-22
2.522076826e-22
8.217174264e-21
3.291444864e-21
9.752369845e-21
5.403774234e-21
1.607568415e-21
4.762327537e-21
3.128188689e-21
2.863351125e-21
7.446811371e-21
2.019578609e-21
6.742812856e-22
8.122748652e-22
6.02425276e-22
1.433836512e-22
1.472164207e-20
1.864479781e-21
5.552953322e-22
1.369008363e-20
4.159348938e-21
4.444199196e-21
4.27527479e-21
4.98266273e-21
7.949997715e-22
1.256605814e-20
1.447834888e-22
1.969888739e-21
5.397127911e-21
1.295224764e-21
2.07071136e-21
1.94765743e-21
2.752336715e-21
3.291998003e-22
9.771343684e-23
7.783722057e-21
3.087161593e-22
5.99339335e-21
3.626660142e-21
2.720904312e-21
1.919325925e-20
5.107719383e-21
1.29506898e-20
5.099545657e-21
3.909058045e-22
6.427340877e-21
4.876698904e-21
2.006942487e-22
7.436928619e-21
2.070948198e-21
6.301282611e-22
2.884631733e-21
2.064628024e-21
6.055761861e-21
7.739690671e-21
1.302702488e-21
4.911700364e-21
4.579790535e-22
2.579136253e-21
1.852338336e-22
1.599807416e-21
1.301719061e-21
7.64889102e-22
6.438420633e-21
2.756894045e-21
1.517005377e-21
2.389013772e-23
1.055930244e-20
4.884669289e-21
1.817699396e-21
1.308573126e-21
8.810362265e-23
1.492319138e-20
6.313121247e-22
1.112946337e-21
1.554615624e-21
1.629693445e-21
5.78207338e-21
5.912840179e-22
2.290346607e-20
4.800829776e-21
2.426562663e-22
3.94788096e-22
2.436586804e-21
3.368910647e-21
1.755860244e-22
1.374945394e-20
1.68459335e-21
5.054591683e-22
1.176583375e-21
1.222936566e-20
2.353189601e-21
7.698731299e-23
3.602996183e-21
2.072432967e-21
7.940835356e-21
2.345593216e-21
2.92050797e-21
7.190300296e-21
3.658059328e-21
1.656811913e-21
1.505031532e-21
8.676757787e-21
9.421360808e-22
2.519053595e-21
8.693745686e-21
2.942498391e-23
1.145564514e-20
2.064755707e-21
1.297927754e-21
1.782141936e-21
6.029299843e-21
1.733445321e-21
2.052133159e-21
5.894259586e-21
1.133259037e-20
2.266382529e-22
1.775167269e-21
2.173690085e-22
6.304801442e-21
1.248149723e-22
6.753900009e-21
2.619199051e-21
1.540388133e-21
2.368980752e-22
1.63816844e-21
6.890907861e-21
6.32861407e-21
1.647459302e-21
2.783983299e-21
1.046814408e-21
1.017272028e-20
3.817345446e-21
3.953996339e-21
3.786163545e-21
1.471277598e-20
5.382255772e-22
1.200365612e-20
8.449567863e-22
5.132994805e-21
8.805228213e-21
3.142371024e-21
5.36978688e-22
4.267159131e-21
6.344244754e-21
6.045873038e-21
3.35032171e-21
3.837920101e-21
4.986189184e-21
5.786795615e-21
7.257104551e-21
4.228863424e-21
1.193784458e-20
4.004923641e-21
4.422424187e-21
8.684112515e-21
4.267055861e-21
5.918506692e-21
1.472628896e-21
7.516195689e-22
4.129668315e-22
1.065323355e-21
2.570708884e-21
5.296698821e-21
2.233762941e-21
2.178790221e-20
8.78162062e-24
7.600627547e-21
6.829423478e-21
4.142334355e-21
5.752626957e-21
1.699607256e-21
9.721236498e-22
1.166213821e-21
7.390933324e-23
2.550067122e-21
1.26512857e-20
6.097760921e-21
4.926880642e-22
3.279643561e-21
1.607359106e-21
1.676930942e-21
2.113121295e-23
1.047332756e-20
1.75235331e-21
5.187457905e-21
1.430085067e-20
8.131025089e-21
1.408894082e-21
1.269597041e-20
4.664218241e-21
4.05313807e-21
2.546931279e-21
1.427311202e-20
3.055710672e-22
3.967384216e-22
5.929031115e-22
5.655755067e-22
8.701780504e-22
9.968788343e-21
1.299188292e-21
1.115563879e-20
2.063089996e-21
1.121301139e-20
1.380297865e-21
3.838863231e-21
5.251500011e-21
5.309296542e-21
2.513231982e-21
2.98861259e-21
1.670836872e-21
1.346495431e-21
6.965378035e-21
6.211804488e-21
7.847992883e-21
2.053480684e-21
2.856372672e-21
1.330791178e-21
1.672503739e-20
6.389358357e-21
4.409689695e-21
9.533504778e-21
3.100969927e-22
4.889601877e-22
2.05013394e-20
1.868474614e-21
9.55814765e-21
1.16574301e-21
2.618851072e-21
2.912068469e-21
5.545278388e-21
3.595510901e-22
1.189532225e-20
7.106858129e-21
4.976803218e-21
2.608512651e-21
2.068588496e-21
3.242069261e-21
8.546029271e-22
2.160911444e-21
9.748401713e-22
1.671143499e-21
2.256147243e-20
4.976464191e-22
2.84443863e-21
2.630935594e-22
4.256874207e-21
3.042032244e-21
4.875485984e-21
1.760133128e-21
8.631366989e-21
3.549017936e-21
4.231388102e-21
2.60102539e-22
2.784925379e-21
8.047657161e-21
4.423911102e-22
3.268290435e-21
2.854614612e-21
4.736559455e-21
5.075229843e-21
2.798858634e-21
3.78887288e-21
2.289015815e-23
6.241404124e-22
3.45791823e-21
1.109750224e-21
1.144369162e-21
1.639735563e-21
6.64521656e-21
1.495980475e-21
1.869789962e-21
9.138339533e-22
4.033142031e-21
9.522923814e-21
4.317682478e-21
3.144527822e-21
1.981566135e-20
1.23662123e-22
7.375909326e-22
2.679890149e-21
2.612019558e-21
3.525021071e-22
2.532346753e-21
8.115924521e-21
8.48445201e-22
3.953112778e-21
8.271961861e-22
2.233721235e-21
6.34213327e-21
1.367460383e-20
1.916295953e-21
7.640443416e-22
3.345322045e-21
8.714118582e-22
7.059606659e-23
5.947179964e-21
2.534522978e-22
4.953549134e-21
8.824210418e-22
3.233276271e-21
9.72717576e-21
1.687955918e-22
2.798485588e-21
1.247987758e-21
1.409931241e-20
5.823705885e-21
2.161636419e-21
8.721765449e-22
6.678518442e-22
3.54019521e-21
3.394510125e-22
1.591290385e-21
2.933572128e-21
1.378094508e-21
4.698047692e-21
6.646442453e-22
1.117351358e-20
3.953839221e-22
4.274749347e-21
8.415717736e-21
4.156655475e-22
7.615404631e-22
2.202150595e-21
1.8939738e-21
1.403094205e-21
6.321187395e-21
5.534641446e-22
4.435598278e-21
4.566808439e-21
2.269087487e-21
1.628975399e-21
1.394754884e-20
4.363327011e-21
4.19228382e-21
2.647575533e-21
5.539628265e-22
1.049647547e-22
1.33050974e-21
5.134402343e-21
6.260869039e-21
3.030470418e-21
8.391515927e-21
3.572319215e-21
3.970804241e-21
2.281045576e-21
1.136874738e-21
2.120740436e-21
4.804561323e-21
3.098021962e-21
1.628607084e-21
5.857108741e-21
4.945740505e-21
1.934396051e-20
1.060361711e-21
2.074370877e-21
1.407560292e-21
4.039028721e-23
1.388365442e-22
4.181390774e-22
4.177501762e-21
5.599546126e-21
3.794676231e-21
2.125985299e-21
9.317599712e-21
1.303462076e-20
8.530806056e-22
2.574211298e-21
2.739637169e-21
2.99282909e-21
1.928961797e-21
1.095339945e-20
1.952318396e-21
4.226235019e-21
7.387348637e-21
2.92349663e-21
2.630557403e-21
8.279227284e-21
1.121913327e-21
7.409536439e-21
3.203648951e-21
4.34007319e-21
6.892217557e-21
6.140800372e-22
9.866767337e-21
1.104431455e-20
2.28815946e-21
1.154678725e-20
7.587887652e-22
3.224408762e-21
8.720901446e-21
7.312852733e-22
2.348492838e-22
1.267284969e-21
5.997587143e-21
1.928455943e-21
1.832851673e-20
7.300045482e-21
8.581026639e-21
4.14781716e-21
4.715623365e-21
3.792204877e-21
1.182847281e-21
2.804486449e-21
3.573085572e-22
4.632430858e-21
2.727102804e-22
1.273792141e-21
6.219342062e-21
3.632094413e-21
4.118768444e-22
4.491022071e-22
5.091405473e-21
1.54197007e-21
3.52863906e-21
5.890194276e-21
2.236605388e-21
1.323278817e-20
1.00844871e-21
2.464744012e-21
8.966066415e-21
1.490221454e-21
2.21158219e-21
6.040811453e-21
1.668684181e-20
6.281374604e-21
4.204353544e-21
3.66994585e-21
4.628289826e-21
1.82301159e-21
7.142799424e-22
1.077119735e-21
3.830402187e-21
4.471517739e-22
8.493358142e-21
6.32258022e-21
3.350314325e-21
8.262974494e-23
2.163546534e-21
7.203404841e-21
3.594488408e-21
7.900320868e-21
1.897238332e-21
1.72819359e-21
9.534571694e-22
2.587877515e-21
1.611729659e-21
8.771850385e-22
5.10839874e-21
5.597563095e-21
1.495727348e-21
7.653778021e-21
4.386898654e-21
1.070382795e-21
1.092751592e-20
1.06106754e-21
4.428902445e-21
9.511523551e-21
1.17292206e-20
1.256316927e-20
1.353735893e-21
3.876676253e-21
4.462495372e-21
5.352641318e-22
2.623620199e-21
1.771120787e-21
9.245214732e-21
7.78316567e-21
5.171126989e-21
2.018398641e-21
7.489619509e-22
9.586702172e-21
9.032286853e-21
7.040460983e-21
2.118594907e-23
3.601523586e-21
6.583866073e-21
1.323380696e-21
1.97551776e-21
3.610453476e-21
3.888304519e-21
3.085802388e-21
1.799262327e-21
1.078023831e-20
1.202803366e-21
8.212454842e-22
3.540229242e-22
9.652779906e-21
1.403385454e-21
1.039863003e-21
7.658662489e-21
1.819091868e-21
6.805907565e-22
2.984342845e-21
3.272003136e-21
1.828707342e-21
3.643540011e-22
1.927405645e-21
4.059025579e-21
3.892992737e-22
9.355991032e-21
1.923791234e-25
5.18819456e-21
9.917432698e-22
1.749780616e-21
1.047892184e-21
2.290778614e-22
1.399903362e-21
1.123765782e-21
1.48170884e-21
2.895571196e-21
3.249069346e-21
1.988463154e-21
4.152230271e-21
3.000420544e-22
8.298124469e-22
1.919680475e-21
6.343000631e-21
2.876239237e-21
1.032851857e-20
1.391013383e-20
2.463907517e-21
4.434121269e-21
1.521437783e-20
1.645416855e-20
4.363549616e-21
5.156626509e-21
1.243554795e-20
4.996567309e-21
1.127393512e-21
2.412705783e-21
7.752255572e-21
1.646410888e-22
9.855723853e-22
7.538898095e-22
1.784655256e-21
2.820202323e-21
7.379725921e-21
3.618350312e-21
4.946639027e-21
3.367373242e-21
4.236315158e-21
7.712811478e-21
2.545724229e-21
1.219185878e-21
5.958333908e-21
1.81164823e-21
5.171657733e-22
2.344605914e-21
8.220674736e-22
2.891075684e-21
1.428544624e-21
6.781293473e-21
7.403347853e-21
1.469368446e-20
8.770840631e-22
8.64228056e-23
1.050116775e-20
5.301038693e-22
1.146451407e-21
2.467930538e-22
5.703771141e-21
7.829214526e-21
8.502658766e-21
3.932485486e-21
2.187109943e-21
7.059980221e-21
6.444847895e-21
7.375984417e-21
9.766028626e-21
3.713672088e-21
2.991852377e-21
3.396587809e-21
3.120518296e-21
7.775451881e-21
5.984215084e-21
1.601696272e-20
5.489345224e-21
3.428095899e-22
1.292648808e-20
3.856784625e-21
1.596269718e-21
3.503653713e-21
6.25933076e-21
1.1938203e-20
9.477351013e-21
1.097503258e-21
6.794750848e-21
5.797626543e-22
5.722055162e-21
1.764482114e-21
9.878239334e-21
6.113034947e-22
4.361234984e-21
7.903344129e-21
1.241775757e-21
6.527310219e-21
3.577715378e-21
1.479152514e-21
2.430830681e-22
6.038481249e-22
2.496606872e-23
7.062533732e-21
3.600599797e-21
1.462200228e-21
2.426624601e-22
2.362255305e-21
9.774478707e-22
1.616542192e-21
3.822003499e-22
7.632769517e-22
1.47546925e-21
6.842515779e-21
3.483785583e-21
1.104591596e-21
5.556908104e-21
9.608496229e-22
8.960768804e-21
4.989680984e-21
3.615429919e-21
1.20696552e-21
4.972761947e-23
1.017157518e-21
1.114268187e-20
1.355860003e-22
4.231867934e-21
6.702432992e-22
6.960185167e-21
3.004902658e-21
2.853974276e-21
1.194292987e-21
1.380327516e-21
6.779825028e-21
3.483717954e-21
1.448961904e-20
6.158335841e-22
3.546676945e-21
1.603621299e-22
1.851960013e-21
1.802343029e-21
1.399375813e-21
1.239813801e-21
1.812908684e-21
2.136037411e-21
4.43234418e-21
3.472293813e-21
6.133154901e-21
7.538658455e-21
2.942362554e-21
2.278389216e-21
1.092446273e-21
5.444302578e-21
3.042604095e-21
8.930117804e-21
1.304261251e-20
6.143914178e-21
4.196252449e-21
9.883318864e-21
3.565272563e-21
3.51818836e-21
1.708482605e-21
1.423520858e-21
1.590315964e-22
9.416105464e-24
2.088000148e-21
3.764762576e-21
1.169813957e-21
2.059546529e-21
5.093615133e-21
1.782283763e-21
8.978818446e-21
1.36771386e-22
3.945384969e-21
5.788719515e-21
1.709417869e-21
7.340548412e-21
5.717489511e-21
1.318636919e-20
4.037885104e-21
2.840377169e-22
7.809807505e-22
1.433128157e-20
9.059187481e-22
3.108628038e-21
1.448530727e-21
2.601048197e-21
1.925159782e-21
2.609122867e-21
2.989983535e-21
1.06278283e-20
9.497575374e-22
9.219885938e-21
1.346531289e-20
2.239707174e-21
8.743972544e-22
6.971900231e-21
1.437353684e-20
6.246151169e-22
4.171160298e-21
8.495142934e-21
1.42159411e-22
7.581687203e-22
9.167106219e-22
2.575760414e-21
2.212734856e-21
1.727800105e-20
8.739320223e-22
1.204303619e-21
3.113099727e-21
2.494203133e-21
6.866538955e-21
2.252064144e-21
9.187769117e-22
3.092423064e-21
1.726622073e-23
4.645781951e-21
1.860178463e-21
3.552724365e-21
8.285273301e-22
1.356060606e-20
7.732183044e-22
6.874531675e-23
1.082480184e-21
1.837547913e-22
7.556749532e-22
1.392834852e-21
1.859717536e-21
7.099110632e-21
1.461525902e-21
1.406583357e-21
5.938612248e-22
7.767510026e-21
6.298533691e-21
2.138920825e-21
4.226755119e-21
3.42741904e-21
3.731254569e-21
6.397214404e-21
4.710720553e-21
6.854228871e-22
4.428746106e-21
8.181219292e-21
4.347516774e-21
5.95370493e-21
7.720927235e-22
5.992766761e-22
5.455477709e-22
3.267852499e-22
5.064153304e-21
4.130936426e-22
3.576237166e-21
1.609473596e-21
1.809659253e-21
9.064459036e-21
7.657761301e-21
7.090964171e-22
6.403233372e-21
6.620516036e-21
2.656430852e-21
9.546951582e-22
1.441170918e-21
2.350364291e-21
3.920617079e-21
2.156427064e-21
7.916941665e-22
4.831562532e-21
1.985032012e-20
1.404595025e-21
9.534279046e-22
3.642917664e-21
6.515106273e-21
7.359125607e-21
9.323801563e-21
2.704039589e-21
4.797187053e-21
5.501960858e-21
4.744353829e-21
1.365584967e-21
3.277905305e-21
3.954716963e-21
3.50417121e-21
3.500238316e-22
9.915434912e-21
6.524049824e-21
1.516784812e-20
2.51002033e-21
7.374613795e-24
7.237387433e-22
6.585313636e-21
4.401362786e-21
1.227261382e-20
3.684291841e-22
5.963498998e-21
4.630583916e-21
5.206781417e-22
7.880535107e-21
5.627029777e-21
1.639576958e-21
4.029493168e-21
1.856042562e-21
1.288411848e-21
1.544389604e-21
3.232765276e-21
2.754602784e-22
5.547678679e-22
1.701942758e-21
6.511918274e-21
1.703898984e-20
9.087441169e-22
2.959502747e-21
2.244347648e-21
3.227048438e-21
2.801944579e-21
1.479355012e-20
1.50002489e-21
2.869067002e-21
1.445224533e-21
7.841066597e-21
1.795879565e-21
4.573941387e-21
1.599355507e-21
1.249776442e-20
1.209913452e-21
8.918203972e-21
4.001079701e-21
2.075338738e-20
8.103500856e-22
3.544282593e-21
1.26477633e-20
2.670995534e-21
8.255562275e-23
2.415245758e-21
2.986601155e-21
1.945558946e-21
2.224073909e-21
4.956103584e-21
1.161613592e-20
5.938099255e-21
5.233366149e-21
5.564664354e-22
5.332612102e-21
8.728663872e-21
2.388042981e-21
6.140583931e-21
2.060299044e-21
7.016979823e-22
2.446003937e-22
4.065149556e-21
7.032533019e-21
2.622477875e-23
6.722096491e-22
1.269354691e-21
2.270253658e-20
3.761746528e-21
5.121330868e-22
4.424356994e-21
1.310491136e-21
3.208748845e-22
1.405113267e-21
2.767962392e-21
1.148448333e-21
3.521201786e-21
8.510412817e-21
1.362495706e-21
8.094639545e-22
1.149168594e-21
4.143038909e-21
7.17654003e-22
4.459314896e-21
5.586651972e-21
1.386525679e-21
4.341316696e-21
6.297756028e-22
1.4173727e-21
2.241514552e-21
1.284196052e-20
3.597682139e-21
3.651313514e-21
7.75953574e-22
1.889332124e-21
9.153835613e-21
1.329380591e-21
7.727616249e-21
3.227772232e-21
1.085812956e-21
2.450124486e-21
2.82425229e-21
8.281073454e-21
2.390883774e-21
8.702043847e-22
1.425353805e-21
5.581844011e-21
1.704600722e-21
2.300674193e-21
1.123743305e-20
1.152518561e-21
2.788729477e-22
3.416929222e-21
1.068008044e-20
2.340550743e-21
4.501367655e-21
1.040003373e-21
3.075883959e-21
5.959283968e-21
1.217501412e-21
2.473163476e-21
1.572591015e-21
1.566944928e-20
9.18517152e-22
8.179226148e-22
1.484944647e-21
5.83277298e-21
7.964153555e-21
4.905951653e-21
5.626216258e-21
2.12330625e-21
4.658760254e-21
1.293262669e-21
1.926036391e-21
6.046003066e-21
1.502048617e-21
4.903755939e-21
3.195113401e-21
3.637447559e-22
8.826237592e-21
6.869814819e-22
3.390713158e-21
2.600276486e-21
2.532061712e-21
4.709956739e-21
9.00312084e-22
1.598032017e-22
1.339180088e-21
6.170617476e-22
2.122976285e-20
3.261367639e-21
4.546644418e-22
2.14278514e-22
3.980927379e-22
6.052022275e-21
8.768347353e-21
6.980304132e-21
3.005407545e-21
2.958412817e-21
4.421099315e-21
1.715193216e-21
1.571128666e-21
8.13727219e-21
5.634136654e-21
1.619852895e-21
3.26465407e-21
8.245347721e-21
6.800917734e-22
8.774088145e-22
6.466234626e-21
1.211344862e-22
7.861217493e-21
3.744036037e-22
2.664297982e-21
5.520471283e-21
2.363671002e-21
5.224544715e-21
8.505243834e-21
3.302395863e-21
7.060633273e-22
8.283317613e-22
7.887816947e-21
1.891895202e-21
1.929564685e-21
4.267812696e-22
2.819937613e-22
3.46843045e-21
5.447940685e-22
2.821592615e-23
7.450986491e-21
2.440187203e-21
3.493795659e-22
3.718617496e-21
6.562937499e-22
1.134320462e-20
2.170416994e-20
3.684683809e-21
9.62423188e-22
4.84239389e-22
5.541557814e-21
1.177600854e-21
8.435659575e-22
2.120121333e-21
9.092899299e-21
4.749651057e-21
1.460600703e-21
5.479769814e-21
2.200499308e-21
6.533292492e-22
4.116948458e-21
2.852365022e-22
3.74388028e-21
1.348207366e-20
1.993053693e-21
2.648875745e-21
1.094016714e-21
2.374259917e-21
1.966373328e-21
9.194399335e-21
2.011890558e-20
2.768493775e-21
1.045049018e-21
7.881894436e-21
4.813798643e-21
2.062665834e-21
4.550328033e-21
4.175129801e-23
8.104945788e-21
1.713760436e-21
1.757217011e-20
7.777510764e-21
5.928283271e-21
5.3889248e-22
2.278276826e-20
5.35992346e-22
4.428001615e-22
5.251480531e-21
4.972076693e-21
1.879470375e-21
4.102365369e-21
5.226125156e-22
4.645748022e-22
3.93459309e-21
9.037645209e-22
9.939819709e-22
9.844715763e-21
8.201207678e-22
2.111829956e-21
1.488462632e-21
1.46124979e-20
7.595187112e-22
7.46929469e-24
6.294403179e-22
4.652433649e-22
1.502667373e-21
2.684002706e-21
6.616537968e-21
3.879915632e-22
7.586750791e-21
3.759176562e-22
1.578865706e-22
4.7522089e-22
1.031307164e-20
6.111336459e-23
5.195920661e-21
3.771217545e-21
6.51416603e-23
7.911941205e-21
3.651760558e-21
1.229474923e-21
3.477565952e-21
2.971566824e-21
2.054000924e-22
8.165484219e-21
6.151798841e-21
2.699933448e-21
6.214934336e-21
7.890170413e-22
1.290721971e-21
1.025223581e-21
2.252292785e-21
9.056011162e-21
9.289709677e-21
6.482045576e-21
8.004335873e-23
1.484586151e-21
2.096293491e-20
5.078093827e-21
5.225842396e-21
4.903399977e-21
2.306173676e-21
1.031163502e-20
5.502572429e-21
7.638701693e-22
1.284041657e-21
1.874426018e-22
2.556696566e-21
6.935461338e-21
2.914516282e-21
7.362215245e-21
3.729509821e-21
4.910496538e-21
7.462906982e-21
1.068343419e-21
1.486660372e-21
1.573483277e-20
1.249445459e-21
2.634658325e-21
2.181866735e-21
3.347147163e-21
3.183067681e-21
4.59126735e-21
2.106709082e-21
8.045585694e-21
5.773495599e-22
1.885517058e-21
2.355332697e-21
1.259669956e-20
1.879264459e-21
5.242819986e-21
3.330203825e-21
7.560131596e-21
4.945604145e-22
4.516902087e-21
6.099747684e-21
6.7419208e-21
1.587144564e-21
6.662495486e-21
5.473724886e-21
6.181537463e-21
5.123388534e-21
2.665757346e-21
4.504702997e-21
3.358241528e-21
2.680223471e-21
3.078760825e-21
5.515951229e-21
1.457084024e-21
2.891228712e-21
5.75627143e-21
2.19318976e-21
1.709766818e-21
8.035777718e-21
6.357234746e-21
7.873196722e-21
3.956828481e-21
1.573349981e-21
7.590506178e-22
2.934485724e-21
1.168941081e-20
6.857194961e-22
7.288159905e-21
1.733198461e-22
4.616461647e-21
1.204512924e-20
5.62084268e-23
5.257408335e-21
6.859055042e-22
1.663542676e-20
6.245952167e-22
1.35155479e-21
8.900394e-22
2.658322945e-21
1.44271402e-20
3.282648641e-21
4.32970123e-21
1.66424432e-21
1.210862238e-22
4.952937172e-22
4.765159908e-22
1.394104755e-21
2.114790596e-21
3.305869069e-21
2.615497766e-21
5.692074762e-21
4.2713891e-21
7.307994644e-21
4.477296918e-22
8.669799225e-22
3.240301943e-21
1.882722741e-21
1.045695833e-20
2.604795229e-21
1.074609101e-20
5.25463519e-22
6.505589884e-22
8.137206955e-21
2.149873686e-20
9.032881096e-21
5.089557218e-21
9.916418516e-22
1.339834085e-23
2.263549161e-22
3.992894087e-21
4.060579912e-21
1.917307425e-21
6.86432774e-22
1.243227761e-21
2.373132353e-21
1.104084369e-22
1.189067632e-21
3.593028511e-21
9.502591403e-23
4.177809475e-21
1.372193836e-21
2.128697753e-21
1.309166355e-21
1.288355937e-20
2.271321219e-21
4.325900431e-21
3.460718757e-21
1.929829905e-21
1.267076104e-23
1.718314255e-21
1.444618562e-20
2.698158964e-21
1.433641998e-21
6.147117006e-21
7.996021129e-21
6.125444002e-21
6.842354426e-21
1.518983388e-20
6.691589378e-21
9.237532117e-22
3.372683599e-21
6.360717791e-21
2.178301692e-22
3.046246812e-21
3.682807029e-21
1.218566353e-21
6.011804832e-21
5.846662101e-21
4.623435164e-22
1.904939423e-21
2.129625415e-22
5.256352459e-21
9.525605183e-22
2.291087583e-21
1.140129991e-20
2.715855466e-22
1.414902587e-20
3.83969359e-22
1.052360256e-20
8.865083671e-21
3.394960814e-21
1.364093833e-21
8.878219495e-21
3.488793516e-22
8.212632196e-21
1.241982095e-21
1.110491861e-20
5.468773151e-21
8.578454646e-21
4.823333192e-21
2.045209267e-21
1.910764092e-20
3.523527033e-21
6.607552472e-21
1.104530381e-21
4.41565102e-21
3.249018191e-21
2.958610823e-21
2.902918965e-21
2.565807555e-21
1.856382314e-20
1.678601518e-21
1.070599133e-21
3.566890483e-21
6.718634781e-21
1.460159593e-20
4.951630684e-22
6.575694686e-21
3.157524676e-21
5.078617311e-21
4.44619675e-21
9.576230852e-23
3.015270605e-21
3.468228174e-21
1.449247891e-20
4.028545082e-21
2.967103601e-21
3.291982632e-21
7.620378588e-21
6.212881153e-22
2.573508421e-21
7.549732376e-21
1.155321679e-21
1.037954018e-20
2.042523282e-21
3.445865544e-21
4.761100064e-21
8.898122527e-22
5.098364284e-21
1.270966233e-20
1.062897831e-20
4.868985049e-21
2.907942113e-22
2.020470009e-21
3.294764474e-21
7.742939821e-22
4.364783145e-21
8.164360305e-21
4.550278366e-23
1.082756861e-20
1.317191869e-22
5.29952752e-21
1.899529873e-21
1.807820104e-20
7.280230862e-21
4.087202828e-22
4.934149106e-21
5.48442087e-21
8.766216334e-21
7.539174854e-21
2.970112154e-21
9.787715762e-22
8.092872582e-21
2.448701695e-21
7.698810649e-21
6.702980338e-22
2.814424248e-21
1.039455088e-21
6.097211798e-21
1.032776268e-21
3.478733788e-21
1.192070188e-21
2.994082491e-21
5.855129935e-21
2.17749114e-21
2.544073277e-21
1.178908622e-20
2.759796085e-22
1.05554147e-21
1.05977608e-20
1.277736593e-21
1.835215706e-21
1.651154122e-21
8.08557441e-21
7.630210459e-21
1.629786336e-21
1.51919217e-22
1.184666704e-20
7.499285406e-21
3.388348571e-22
2.72108925e-21
3.446555572e-21
1.422404544e-21
2.545635939e-22
1.511927544e-21
7.629083953e-21
2.735591378e-21
5.937674516e-21
3.954019294e-22
9.067234261e-21
1.320385512e-21
1.895070749e-21
2.208367399e-21
1.978659382e-21
2.959826838e-21
2.007934899e-21
4.268427654e-21
5.922126916e-21
1.259046032e-20
2.683866115e-22
5.626652888e-22
2.44802878e-21
2.309517333e-21
7.303428026e-21
1.966326018e-21
3.866307571e-21
2.231714757e-21
7.148327968e-22
2.02214266e-21
4.611813972e-21
8.501978592e-21
3.812255948e-21
7.632932742e-21