/*--------------------------------*- C++ -*----------------------------------*\
| =========                 |                                                 |
| \\      /  F ield         | OpenFOAM: The Open Source CFD Toolbox           |
|  \\    /   O peration     | Version:  2.4.0-MNF                             |
|   \\  /    A nd           | Web:      www.OpenFOAM.org                      |
|    \\/     M anipulation  |                                                 |
\*---------------------------------------------------------------------------*/
FoamFile
{
    version     2.0;
    format      ascii;
    class       Cloud<dsmcParcel>;
    location    "0.0006/lagrangian/dsmc";
    object      positions;
}
// * * * * * * * * * * * * * * * * * * * * * * * * * * * * * * * * * * * * * //

64126
(
(0.01985754131 -0.01304110744 -0.02036751569) 1073
(-0.00151687666 -0.02204010538 0.02393016508) 3909
(0.00592709067 -0.03956185616 0.02738349005) 4171
(0.04842580712 -0.02851414287 0.01104170752) 3259
(0.03684041346 0.01463069495 -0.02242349497) 1177
(0.02238953932 -0.03017966341 0.02327080357) 3874
(-0.01769670724 -0.03295988394 0.009990148027) 2906
(0.006955948329 0.0004614605318 -0.01875786737) 1451
(0.02035051503 -0.01646833241 -0.005780355471) 2014
(-0.03192379493 -0.009603915879 0.005935392057) 3003
(-0.01759989405 -0.00749239154 0.03892228611) 4926
(0.01121901376 -0.02375280216 0.01599441349) 3592
(-0.001649875701 -0.03437337145 -0.0135352063) 1629
(0.04674144904 0.01387840575 -0.02018155044) 1179
(-0.04968469306 0.0008516041509 0.01684660927) 3680
(-0.01135651658 0.002092114571 -0.001030157069) 2407
(0.03237174193 -0.0165813161 -0.02774937405) 736
(-0.04192539245 -0.03129321205 0.01598203082) 3541
(-0.04515156496 -0.02809796824 0.01999667606) 3560
(0.002026926255 0.01901109855 0.02944585809) 4390
(0.03750946306 -0.03957591231 -0.006090717888) 1937
(0.03118756432 -0.0002057681557 0.009323095018) 3036
(-0.04519617927 0.008014054478 -0.01786554598) 1460
(-0.009163974511 0.01396283913 0.005199884425) 3088
(0.04106811904 0.03756272235 -0.03210951554) 638
(0.0420712598 -0.03608255414 -0.01224612715) 1618
(0.02224541229 -0.005671064414 0.005152618096) 3014
(0.01071033045 0.0293363306 -0.004660551987) 2512
(-0.03803664236 0.02308817618 -0.03084551173) 562
(-0.02366532918 -0.02700699148 0.02267138738) 3885
(0.0007582969179 0.01282888246 -0.01265334849) 1810
(-0.02507822015 -0.01139582637 0.0007485814925) 2664
(-0.04732954324 -0.03574004737 0.02619717924) 4160
(-0.01942946229 -0.007362201707 0.003931813345) 2686
(0.02829635383 -0.002109286961 0.0274008403) 4315
(-0.04856358804 -0.02795140161 -0.01125553935) 1640
(-0.03802479525 -0.02048984649 0.02905254334) 4222
(0.04430529496 0.01601681416 -0.02792597507) 878
(-0.03998966864 0.02782385625 0.01311699058) 3462
(-0.004077048738 0.01350753629 0.01423496154) 3409
(-0.005505325391 0.03304773326 -0.003545828036) 2528
(-0.01890791898 0.0132589047 0.0288188708) 4366
(-0.0206350577 0.03220760347 0.003204993717) 2845
(-0.01235655955 -0.03033059056 -0.03719665474) 27
(0.003907340149 0.0245214206 0.02314404017) 4090
(-0.04078845552 0.01754056323 0.02088765351) 4061
(-0.04228318727 -0.03156120775 -0.01166495899) 1621
(-0.01514601636 0.01180137656 -0.01412274375) 1806
(-0.0455867308 -0.01245710847 0.03194348807) 4580
(0.02178517843 0.0219881266 0.03785639249) 5054
(-0.01532204965 -0.01740107383 0.03310123916) 4566
(0.00972815534 0.0264929996 -0.005629954841) 2191
(-0.007771343798 0.004328742568 0.007012381096) 3048
(0.02592008105 0.03819049709 -0.004120880232) 2555
(0.01674820325 0.001930581697 -0.00870929621) 2093
(-0.04022295908 0.032209997 0.006699745226) 3161
(0.02258114852 -0.03764505853 -0.01607798263) 1294
(0.03386209208 0.00331498719 0.01706031022) 3696
(0.03450168676 -0.01020690081 0.002948712062) 2676
(-0.01633497007 0.03401681259 0.01701551466) 3806
(0.01140663732 0.01314081727 -0.00180445317) 2452
(-0.04042262836 -0.03043197071 0.009840951095) 2901
(0.007666190765 -0.01896102685 -0.01521311767) 1371
(-0.0139780663 0.008616723813 0.03505572276) 4987
(0.03273900289 -0.01651070454 0.026551443) 4256
(-0.0006875095314 0.02510449369 -0.004343079424) 2509
(0.003418990249 -0.007080037332 -0.01704805164) 1410
(-0.04302210942 -0.01130335189 0.03862627135) 4901
(-0.02948158734 0.02680539415 0.01994425279) 3784
(-0.02923356648 -0.03393632512 0.03888334316) 4824
(-0.04490245825 -0.03306680836 -0.0166900703) 1301
(0.02531380568 -0.005707080332 0.0009794526519) 2695
(0.0464082194 0.02006675439 0.01801410386) 3779
(0.00310241671 -0.01950081267 -0.003893690425) 2330
(-0.01500252878 0.006592854941 -0.03852780651) 186
(0.02507500145 0.008950347958 0.0008128001327) 2755
(-0.04400140925 0.03979301653 0.02876790135) 4461
(-0.02928571464 0.02938726294 -0.03463312839) 584
(0.001069682158 -0.01108402643 0.006684792904) 2990
(-0.03506464601 0.02817114452 -0.03131903051) 582
(-0.03782758267 0.00423396825 0.03890656244) 4962
(-0.02891628992 -0.01338918099 -0.0348318652) 424
(0.01279205066 -0.01544814693 -0.03827569354) 92
(-0.004896444546 -0.008441555665 0.02281425784) 3969
(-0.008089887496 0.02224940022 -0.0170483877) 1528
(-0.04236234351 -0.03287604247 0.01390138219) 3221
(0.02510401188 0.003715966784 0.034049861) 4655
(-0.01573049537 0.01064151153 -0.01570659925) 1486
(0.001786423802 -0.02425015795 -0.002537313466) 2310
(0.01470076379 0.02271247245 -0.03318002282) 572
(-0.02848890458 -0.02354286563 0.03438725787) 4544
(0.02004978357 -0.03446414522 -0.02333920251) 994
(-0.001688405722 0.02869983614 0.02977313526) 4429
(-0.01138209596 0.0279479077 0.02095242288) 4107
(-0.04674174238 -0.03476355484 0.03464797294) 4500
(-0.04782489216 0.03271854326 0.03558109224) 5080
(0.0007117138363 -0.03920531504 0.0003180658253) 2570
(0.03947168098 -0.01479856675 -0.02998076407) 757
(0.003289020557 0.0248548778 -0.02220903891) 1210
(0.0118175253 -0.03267106852 0.01759091111) 3552
(-0.009770317764 -0.01435594324 -0.006085145574) 2028
(0.0343461981 0.008768781817 -0.02063543389) 1156
(-0.01919461096 0.01220765757 -0.002399361047) 2446
(0.009748042218 0.03185403693 0.01079546904) 3491
(-0.0008645975132 -0.03066520805 0.01986615385) 3549
(0.01848021651 -0.03977430455 -0.010256025) 1613
(0.01943423733 0.001635440946 0.009074415492) 3053
(-0.04500832435 0.03049401021 0.00129089948) 2840
(-0.03980500975 0.002284601301 0.007268018897) 3042
(0.006063907158 0.02049008055 -0.008459635445) 2171
(0.006589413404 0.03141931907 0.03289751105) 4771
(-0.01512169946 -0.03539313846 0.01265229207) 3206
(0.002524413177 0.02807369059 0.01295492518) 3470
(0.04051225159 -0.03707395146 0.03317615454) 4498
(-0.03739002168 0.003116301425 0.01048868093) 3362
(0.01528499235 -0.01916387601 0.01232345067) 3293
(-0.02057388145 -0.01328211525 -0.01127515707) 1705
(-0.01794570894 0.03509417169 0.02728158428) 4466
(0.04761444004 -0.0378764363 0.03760796057) 4819
(0.0148807007 0.02626910757 0.01922128859) 3792
(0.0355228615 -0.03317762093 0.0306186353) 4517
(-0.01766206341 0.006641437123 0.003040263298) 2746
(-0.03562336835 -0.01094284129 -0.02433397521) 1062
(0.003219601472 -0.02829460221 0.01426867413) 3250
(0.003062655546 0.01205021566 0.002673860917) 2770
(-0.0243153659 0.03925843489 -0.02918550077) 945
(-0.03098239515 0.004275535811 0.03815315516) 4963
(0.02717260843 0.00263437099 -0.02252475329) 1135
(-0.0146205521 0.03331126258 -0.008912474866) 2207
(-0.04602357219 0.01719796421 0.02057438217) 4060
(-0.03887087385 -0.0003584959121 -0.02017728972) 1102
(0.03495984596 -0.01710835057 -0.0246016912) 1056
(0.04633870001 0.0213305083 0.01389538717) 3459
(0.03651325167 -0.03877709667 -0.02063589985) 977
(0.04749732396 -0.03635052814 0.02836596075) 4179
(-0.03971662343 0.01381781821 0.0360440969) 5002
(-0.04867056662 -0.01869159984 0.01020229964) 3280
(-0.03890800671 0.01050122609 0.03312807543) 4682
(-0.01664374364 0.02823311135 0.03312366015) 4746
(0.04004389058 0.02466368835 0.02524382287) 4418
(0.0001816194502 -0.039474149 0.01436382668) 3210
(0.03532955639 0.0170061087 -0.01627250374) 1517
(0.005441003926 0.02536123894 0.03075151595) 4751
(-3.570595474e-05 0.003113739487 -0.000444295735) 2409
(0.01686900374 0.02559338139 0.01039906121) 3473
(0.04757741433 -0.03123005422 0.001000195023) 2599
(-0.01675719749 -0.03761302347 0.01998002119) 3526
(-0.03659681222 0.03245773288 0.03239247073) 4762
(0.04961440968 0.0008068165345 0.02238262494) 4019
(0.03610692642 0.01329746326 -0.02439424196) 1177
(0.008208847612 -0.004023690901 0.03063964418) 4631
(0.03347157301 -0.007092612422 -0.02084386894) 1096
(0.01761781066 0.01926526522 -0.0282797729) 873
(0.03385324957 0.02224917428 0.02800820421) 4416
(-0.02616714124 -0.00614094838 0.01565073837) 3644
(-0.01771169396 0.009368534813 0.02576614636) 4346
(-0.02978581873 0.008908123794 0.0367644443) 4984
(0.01826293576 -0.003419125222 -0.01733198903) 1433
(0.001457463496 -0.002650924338 0.006001672669) 3030
(0.029091528 -0.007354046862 -0.02328197359) 1095
(-0.04848174837 0.02757270495 0.01152313696) 3460
(0.01331018788 0.003899269566 0.03864356721) 4972
(-0.01444477952 0.03716477568 0.01022986099) 3507
(0.04607870915 -0.006167232091 0.03361155649) 4619
(0.03733121776 0.03632582742 -0.03230181189) 637
(0.02818085222 -0.006149217904 -0.02036521996) 1095
(0.01034625838 0.03123888508 -0.02642474149) 932
(-0.023916951 -0.03135517711 -0.00775957823) 1945
(0.03902842687 0.03764262946 0.0008249650981) 2877
(-0.04696527233 0.02033405107 0.003055990612) 2800
(-0.04880636876 -0.02107873335 -0.0089476002) 1980
(0.03992453064 -0.01527353654 -0.0006155441557) 2337
(0.005204623124 0.03665827394 0.01692940426) 3831
(-0.03007146191 0.02250361994 0.02984855593) 4403
(-0.04774702164 0.01708783479 0.00705820916) 3100
(0.0265717966 0.01159671683 -0.01353081604) 1815
(-0.0008479490436 0.01226415537 -0.002355428363) 2449
(-0.03824174066 0.03861757615 -0.0005485442573) 2542
(-0.005522943834 -0.007106182649 -0.01003988583) 1728
(-0.02478955894 0.01356980293 -0.03209767011) 525
(0.04910961363 0.03686987775 0.02706341922) 4479
(0.001807439083 -0.01679479296 0.03966988966) 4890
(0.03157840519 -0.006346642161 -0.03390798309) 456
(-0.01676098302 -0.03998188203 -0.021867751) 966
(-0.03130562842 0.0002249859579 -0.03547480255) 163
(-0.02420299111 0.02800991563 -0.02273336093) 1225
(0.04994561179 -0.03229394195 -6.52641067e-05) 2279
(-0.03599690174 0.01724607685 0.03503668772) 5022
(-0.01120986382 0.01952614043 0.006152961126) 3107
(0.03061412063 -0.01285001883 0.01613879181) 3636
(-0.002367153584 0.00307761057 0.01369373456) 3369
(-0.03898647912 -0.03786002187 0.03584859156) 4802
(-0.01132431708 -0.005507182258 -0.03407299873) 447
(-0.03059909608 0.02119417415 0.008521827676) 3123
(-0.02882312093 0.03288991468 0.03469672591) 4764
(0.02873803493 0.01858861222 0.006202789535) 3115
(-0.04809031057 -0.006425465363 -0.002082785227) 2360
(0.03940715592 -0.03820046955 0.0004598251918) 2577
(0.02811185708 -0.03165655427 0.02205758848) 3875
(0.01374904453 0.03434232235 0.0275066571) 4452
(-0.0006996720969 -0.01104165378 -0.03608871892) 109
(0.002238054792 0.02198085859 0.01313303829) 3450
(-0.01224168196 0.03024540792 0.01177064745) 3487
(-0.02167569959 -0.03268171242 -0.03482381443) 345
(0.04778858664 0.01353977683 -0.03758577807) 219
(0.01165745618 0.03211368121 -0.03443934508) 612
(-0.04306874907 -0.008909844108 0.02696431496) 4281
(0.01649521208 0.003645771541 -0.02476333933) 1133
(0.006440243181 -0.02640624204 -0.005772322619) 1971
(-0.04865451583 -0.0138042059 0.01694500852) 3620
(0.0008852048063 0.006905225031 0.005590280524) 3070
(-0.01647560996 0.006831691788 -0.03652039208) 186
(-0.03994903549 0.03852944702 -0.03247697605) 622
(-0.02251425858 0.03821003893 0.03591736585) 5105
(-0.02753653065 -0.03799091946 0.02169269009) 3844
(0.0238761859 -0.0211941814 0.001209308578) 2634
(-0.02626284031 0.0332928444 0.02871733861) 4444
(-0.002019021427 -0.0399666821 -0.02151741679) 969
(0.03320187742 -0.02592502762 0.01968720919) 3576
(0.0004743268836 0.0163677405 -0.03898525593) 230
(-0.04857114615 -0.03392032534 0.009980154716) 2900
(-0.02162373629 -0.01347467154 0.02378596219) 3945
(-0.04360579664 0.02322998912 0.02023567109) 4081
(0.01695363545 0.01753269525 0.02039862861) 4073
(-0.02768552274 0.009819159629 -0.02632987665) 824
(-0.03951875796 -0.03885471787 -0.006691697174) 1922
(-0.01175806046 0.01477254978 -0.003414669379) 2447
(0.04522716748 -0.01773958432 -0.03231143095) 419
(0.008484178435 0.00572062368 0.02215079696) 4031
(-0.03325166356 0.005084304653 -0.005735032988) 2103
(-0.03695831186 0.01581279998 0.01742137729) 3742
(-0.002854377243 -0.01224250614 0.009253202361) 2989
(0.01366112557 0.002808236955 0.01540482325) 3692
(0.01215981067 -0.002569054961 0.01311278694) 3352
(-0.00295808679 0.01103140088 0.006325575884) 3089
(0.02542010336 0.03770148967 0.01978555769) 3835
(-0.04694579404 -0.01123708662 -0.01057484811) 1700
(0.02399361718 0.01775862419 0.003846431286) 2794
(-0.01374121038 -0.0227516602 -0.006238709299) 1987
(0.03632615969 -0.02107406815 -0.02474446615) 1037
(0.010320585 0.004918928368 -0.03132248722) 492
(0.01550766625 -0.01943088041 0.0384852798) 4893
(-0.02751648307 0.0361246167 0.02134250966) 4144
(0.02953578525 -0.01613073528 0.007356063567) 2975
(-0.007819486827 0.03675213015 -0.02918593602) 948
(-0.001631180841 -0.000195264595 0.02191657872) 3989
(0.002550842772 -0.02552585424 -0.03177319721) 370
(0.01169154414 0.003742216988 0.02707387825) 4332
(-0.04384872615 0.02927209086 0.01405739064) 3461
(0.007389103559 -0.01132198572 -0.00100863865) 2351
(-0.02043880528 0.01529972734 0.004371509621) 2785
(-0.03477176008 0.01896362312 -0.00811691484) 2143
(-0.002327985625 0.02675505352 0.00617660601) 3149
(-0.04555779086 -0.004502188595 0.009872731226) 3020
(0.02245436795 0.02137710085 -0.02236458997) 1214
(0.02790907673 0.02812166989 0.01514956929) 3795
(-0.01144574038 -0.005427035617 0.03120742346) 4607
(0.006342219582 -0.003878816165 -0.00180771608) 2391
(-0.0118454253 -0.004290275987 0.02168233489) 3987
(-0.04526730529 -0.02284262776 -0.03585234618) 60
(0.02011471456 -0.02010231559 0.03482746156) 4554
(0.01817129513 0.03286092121 -0.03629604925) 293
(-0.04063533388 -0.006934796513 -0.01617335392) 1401
(-0.04407551907 0.03952610842 0.006921805888) 3181
(-0.001856896807 -0.02362128266 0.01628773208) 3589
(0.03603033673 -0.02835130607 -0.03713113171) 57
(3.189543507e-05 -0.01138203902 0.02656622123) 4270
(-0.002905666209 -0.01601311776 0.008608706968) 2969
(-0.04695852401 0.03965932474 0.01129580871) 3500
(-0.01580494251 0.02277289179 -0.0168472728) 1526
(-0.000353584224 -0.02060389909 0.01132660168) 3269
(-0.03948685593 0.01817889869 0.00740912361) 3102
(-0.03394777724 -0.02600416677 -0.02037801927) 1003
(0.01563312003 -0.03801389126 0.02360864757) 3853
(0.02280482311 -0.001641308187 0.02953150056) 4314
(-0.008645347203 0.01323231028 0.007790490251) 3088
(0.02230773784 -0.03828102433 -0.03338863756) 334
(-0.0491421426 -0.0323796505 -0.03222291314) 340
(0.00992238192 -0.006764530484 0.02031792653) 3971
(-0.04357190468 -0.01426524355 -0.004775623621) 2341
(0.01801625678 -0.03287575744 -0.02996307452) 673
(0.03320399955 -0.006953934708 -0.03412278569) 456
(-0.03981508263 -0.02694146571 0.02781802393) 4202
(0.02880308173 -0.03816765686 -0.01050353421) 1615
(0.0297608551 -0.02915815514 0.01369721058) 3255
(0.0130542862 0.02023870042 0.009812782055) 3132
(0.0498902272 0.01130711039 -0.002723490012) 2459
(0.01692336888 -0.01951479075 0.01650105304) 3613
(0.01322566011 -0.01925362065 0.02860606464) 4252
(0.01852961986 0.003355906474 -0.0007643136372) 2413
(0.03893123329 -0.002851575374 0.0211028102) 3997
(0.02746990373 0.004483333179 0.03497996209) 4655
(-0.03367165481 0.03562280932 0.01679405576) 3823
(0.01653124228 -0.01898746151 -0.009635521435) 2013
(0.03265252967 0.02615154649 0.01386323483) 3476
(0.009063775133 0.03238511898 -0.03088674346) 611
(-0.03760198171 -0.009158130277 0.00445502587) 2682
(0.03984605935 -0.03217374065 -0.03777767705) 37
(-0.01855973649 -0.01904865666 0.007161531339) 2966
(-0.03862145266 0.02269058877 -0.03039198897) 562
(-0.002788383969 0.03425552601 -0.003405443887) 2529
(-0.03883723899 0.004681374309 -0.005692495793) 2082
(-0.02263412195 -0.02221184673 -0.03058917875) 385
(-0.04000689458 -0.03975460581 -0.03366247233) 321
(-0.02059884107 -0.02068282103 -0.00638040696) 1985
(-0.01341698599 -0.004965975449 -0.0117816216) 1747
(-0.01418994052 -0.006290892056 -0.006223651493) 2047
(-0.02578816735 -0.03544212954 0.03424135962) 4484
(-0.03136703482 0.03824004211 0.01450130073) 3503
(0.03126741807 0.03500508207 -0.009931488314) 2236
(-0.02665694737 0.008480089786 -0.02133807605) 1144
(-0.04681987967 -0.01416447928 0.03335526906) 4580
(0.02722900061 -0.03862949491 0.009992357244) 2895
(-0.004319267045 0.01798048379 0.008018793869) 3109
(-0.02957392036 -0.037438636 0.004704469805) 2564
(0.01508532488 0.02542970829 0.03193887104) 4753
(-0.01400172575 0.02841438965 -0.03824039262) 267
(-0.01869088089 0.01223948769 -0.03841183934) 206
(0.0362011085 0.01162685596 0.007891765965) 3097
(0.04069858408 -0.02184394407 0.01883921923) 3598
(-0.008754035657 -0.01617295255 -0.0257065198) 728
(-0.01471843454 -0.01570624266 0.0103609397) 3287
(-0.03892136626 0.01238740972 -0.001822450442) 2442
(-0.01649189765 -0.01742093981 -0.01688770323) 1366
(-0.03462304419 -0.005387511178 0.002605948697) 2683
(-0.01694223192 0.01535823125 0.0230899603) 4066
(-0.02563699886 -0.03534611191 -0.02440655901) 964
(-0.03867645514 -0.02909956505 -0.01160203171) 1642
(0.04805739466 -0.01304512989 0.03569142325) 4919
(0.03855122495 -0.02739155164 0.03299061733) 4537
(0.03729473083 0.0281674893 -0.0249203867) 1237
(0.02569394612 -0.003314397557 0.001548281333) 2715
(0.03143550578 0.03929491187 -8.42789975e-05) 2556
(0.04629808151 0.005760196109 -0.02337941251) 1159
(0.01202163438 -0.02557562021 -0.02520528666) 692
(-0.03438253327 0.006344775195 0.03021553313) 4663
(-0.0305005216 0.02699194057 -0.009348148916) 2183
(0.00968985622 0.02674364855 -0.008150046427) 2191
(0.01293882073 -0.003270805254 -0.0236288496) 1112
(0.01895913751 -0.02808309348 -0.007706191813) 1973
(-0.02800765955 -0.03547709391 0.03671916156) 4804
(0.02138981138 0.01849485145 0.01803345373) 3754
(0.04528164021 -0.03428565822 0.03781641493) 4839
(-0.04121323305 -0.006125599252 0.004694844403) 2681
(-0.009888319571 0.005223271543 0.02405923689) 4028
(0.04856884781 -0.008945681136 0.008577783137) 3019
(-0.02924286482 -0.01641185094 -0.005717154618) 2004
(0.03628568033 -0.03638562263 -0.02160389824) 977
(0.04090562414 0.02234233007 -0.01153889715) 1858
(-0.04946679327 -0.005924448737 -0.002527031112) 2360
(-0.01083249269 0.00180128997 0.01400022652) 3367
(0.0492078163 -0.006283630184 -0.008102608581) 2059
(0.001194877121 -0.03681880445 -0.0231332527) 970
(-0.01956964112 -0.03938039669 0.01429099288) 3206
(0.01243970771 0.001962868606 -0.03481343507) 492
(0.02991619617 -0.02870622894 0.02263282157) 3895
(-0.02032350839 0.0247634425 0.02134358977) 4085
(-0.04573616545 -0.00855818041 -0.03763466575) 120
(0.02821947201 0.03271203431 -0.01132300323) 1895
(0.02457136229 0.01475413686 -0.01682303851) 1494
(0.03729678466 -0.01268829519 -0.02762458242) 757
(0.0231611323 0.01989798437 -0.03307236348) 554
(0.01538511136 0.03582265122 -0.03610045087) 313
(-0.002787516428 -0.01305421932 -0.0206059664) 1069
(-0.0070015985 0.03783499206 -0.002082813427) 2548
(-0.04968995364 0.02507922521 -0.004500812548) 2500
(0.002919608792 -0.01865256448 -0.02662938459) 730
(0.02953388197 0.01804537575 0.02711673583) 4395
(0.04550500137 0.02258747242 -0.001321748557) 2499
(0.04728877356 -0.01272274712 -0.00884722803) 2039
(0.03823047771 0.02915418428 -0.0291054567) 917
(0.0401639165 -0.02592611814 0.008212763568) 2938
(0.02492872695 -0.0006530456187 -0.02321419535) 1114
(-0.03604031146 0.03751438332 -0.03027168027) 622
(-0.009482514624 0.006509888197 0.01764449149) 3708
(0.04760316431 0.02469381389 0.01412871431) 3459
(-0.03623330565 -0.005205671778 -0.02904837495) 762
(0.008202038866 0.02063877002 -0.01824979768) 1531
(-0.03330614955 0.002219647919 -0.0261758808) 803
(0.0424557456 -0.0213944775 0.01688286897) 3598
(-0.04679868279 0.02506643262 0.03576654097) 5060
(-0.02135407136 -0.02993002517 -0.02014230175) 1005
(-0.0394469718 0.01937268985 0.03189904039) 4702
(-0.02629247233 0.02300256966 0.03660640447) 5044
(0.005946385852 -0.03882428256 0.00494096518) 2571
(0.03188052645 7.565670628e-05 0.01626312333) 3696
(-0.01374785372 -0.005016009715 0.003089247825) 2687
(-0.04569909777 -0.03187470004 -0.01022491943) 1620
(-0.0433753961 0.03737429108 0.01594801516) 3821
(-0.02640531979 0.03602225737 0.01312710772) 3504
(0.0007686532358 -0.001022007513 -0.02886798213) 790
(-0.02132464584 -0.03705747713 -0.03434289698) 325
(0.02099481903 0.008314433493 0.0209207841) 4034
(0.008905035997 0.0287290364 -0.007752606006) 2191
(0.01145052163 -0.03790027103 -0.01094804048) 1612
(0.01749627619 0.02537397989 0.005306349241) 3153
(0.0001886554173 0.02545928771 0.01671045954) 3790
(0.02056725083 0.007387594573 -0.007086565208) 2114
(0.01124425298 0.03868620577 0.006886838) 3192
(-0.02193377955 -0.01036784221 0.0071007072) 2985
(-0.04719980342 0.03070661752 -0.02337253709) 1240
(0.01331216641 0.00128069855 0.0221875259) 4012
(0.02212158163 0.03427265087 0.02287470384) 4134
(0.004353796886 -0.02128642541 -0.01282979759) 1670
(-0.04657978913 0.02689537506 -0.01464104414) 1860
(0.02000142696 -0.03392339928 -0.00292755459) 2274
(-0.03699364104 0.02485665831 -0.001248418129) 2482
(0.04223427282 0.02728485782 0.0178178768) 3798
(0.02558835131 -0.03638741273 -0.02804188405) 655
(-0.01619171708 0.02998573229 -0.0154074355) 1546
(-0.0398427122 0.01962968757 0.03930422783) 5022
(-0.03741280762 0.03467866667 0.02345506694) 4122
(-0.006205875969 0.001412804454 -0.03745790634) 168
(0.03677631371 -0.008308135833 -0.02586289731) 777
(-0.03593020357 0.03927643104 0.005382085568) 3182
(-0.01940127427 -0.02034700226 0.007887641394) 2946
(0.03645051251 -0.003480757956 0.03256203551) 4637
(-0.03690270225 0.01898581703 0.001093540887) 2782
(0.03645867611 -0.01111973583 0.0239176963) 3957
(-0.007964446294 0.007917871509 -0.005675748169) 2108
(0.01588298283 -0.01883147117 -0.009977306405) 2013
(-0.003728204175 0.01231387605 0.02675278046) 4369
(-0.006845509346 0.01532357367 -0.005958292761) 2148
(0.03300559578 0.007931509267 0.03949393939) 4996
(0.03488353305 0.02832981009 0.01304515446) 3476
(-0.03356074678 0.01843750412 -0.03715990918) 223
(-0.04716961722 0.02877332769 0.01952117457) 3780
(-0.03668961151 -0.03505008119 -0.03655036645) 2
(-0.01386016368 0.02622799661 0.01119641396) 3467
(-0.03955053594 -0.01033804462 -0.009336435843) 2022
(0.03957173654 0.002370227982 -0.03269508285) 497
(-0.02806788042 0.03604606661 -0.02632264456) 944
(-0.04741911615 -0.01721410389 0.03877210255) 4880
(-0.01836183028 0.02730116882 -0.01480716421) 1866
(0.02220825874 -0.001791196244 -0.01419336902) 1754
(0.03554841824 -0.03762839177 0.00797240586) 2897
(0.0417334054 -0.008477409879 -0.01499637914) 1738
(-0.04568496955 -0.01786411517 0.02496899117) 3920
(0.02455333874 0.01243041163 -0.03376230608) 534
(0.01575486703 -0.003243926402 0.02933191418) 4313
(0.02213872527 -0.03592571314 -0.02347548222) 974
(-0.004864200784 0.02679605299 -0.001244454334) 2509
(0.01375640097 -0.02107107426 -0.00263670754) 2312
(-0.0004065519481 -0.004144056704 -0.004432722156) 2389
(-0.02325233774 0.00797748598 -0.007625553835) 2105
(0.04376341132 -0.01409875091 0.005060522718) 2998
(0.004415743548 0.0325257101 0.0001330981949) 2850
(-0.0296306327 -0.02205827476 -0.02639221145) 704
(-0.02749041007 -0.01726741 -0.01683022708) 1364
(0.03395607968 0.03956485498 0.008262804059) 3196
(0.03716685927 -7.588919913e-05 0.03792991412) 4957
(-0.0341681225 0.001993581881 0.004214783873) 2723
(-0.02503778709 -0.01114851722 -0.03478716924) 424
(0.001554670512 0.01661288391 -0.002585512691) 2470
(-0.04010545609 -0.0131452447 0.03534890242) 4901
(-0.0457133078 0.03024310021 0.03876071229) 5080
(-0.04533866868 0.01297888237 -0.01671400979) 1480
(0.01623843704 0.009444389488 0.002594422977) 2753
(-0.0424444575 0.01058757677 0.0387056595) 5001
(0.0246743705 0.03546267674 0.01144146991) 3514
(-0.03196080771 0.02265223983 0.03136004165) 4723
(-0.02121773379 0.001935821594 0.0359015458) 4965
(-0.04876797665 -0.03313374405 -0.0009651663979) 2260
(0.01547954481 -0.03681602998 0.03574085518) 4813
(-0.009216486904 0.03597084559 -0.009572290524) 2228
(0.04315772423 0.01413815061 -0.0126496559) 1818
(0.004652516044 0.008643558707 0.03897469089) 4990
(-0.01610167792 0.02645652471 0.00720210121) 3146
(0.01765490386 -0.009400687194 0.03616974172) 4933
(0.01236429122 0.02981148206 0.001117923579) 2832
(-0.008622947546 0.02239616595 -0.01716188607) 1528
(0.03718545176 0.013952221 0.01246738675) 3417
(-0.004315439088 -0.01701363688 0.02105911152) 3929
(-0.04206787177 0.005402537519 0.01433174652) 3381
(0.01857147854 -0.03222205584 -0.02407259068) 993
(-0.01887021121 -0.01820024541 -0.01300783257) 1686
(-0.0273483928 0.00929809228 -0.03954523155) 184
(-0.01733422472 0.03089269402 0.01295113191) 3486
(-0.009929581689 -0.009196277098 0.01210153396) 3328
(0.01774851602 0.03551937379 0.01303717744) 3513
(0.008313818808 0.005292996779 -0.01584661875) 1471
(0.03164854811 -0.01939893615 -0.03148138038) 416
(-0.02902396635 0.008070290311 -0.02775821964) 824
(0.01614657648 -0.003481885746 0.02264768964) 3993
(-0.03513617169 0.02447957262 -0.0252515651) 882
(-0.02192394261 -0.03912956936 -0.03783786407) 5
(0.02136371651 -0.0224750516 -0.01445304886) 1674
(-0.00138513559 -0.01784567079 -0.03571291078) 89
(-0.04931686688 0.03241537016 -0.003979186809) 2520
(0.01335967081 -0.02034499826 -0.01023471448) 1672
(-0.0474922395 -0.02941392384 0.01515000593) 3560
(0.009552679868 0.008657162672 -0.03399280684) 511
(0.04568718833 -0.01733454042 0.03396692797) 4579
(0.03344109011 -0.007845295603 0.02202872098) 3976
(0.04519633987 -0.0252756603 0.01512328558) 3579
(0.04990048659 0.03643338065 -0.0179557361) 1599
(0.0248107382 -0.02603281655 0.02281949878) 3894
(0.01568364153 0.03240903185 0.001469994542) 2853
(0.02550921233 0.002199192334 -0.03122995338) 495
(-0.02257410205 0.01337932087 -0.01269544002) 1805
(-0.01468896916 -0.01981220459 0.01966769358) 3607
(0.008120798639 0.03883331857 0.01502492847) 3831
(-0.01587044824 0.01658463427 0.005984664892) 3106
(0.02322259334 0.03935975906 0.005997492779) 3194
(0.007392655021 -0.006399048041 -0.008724960024) 2051
(0.03855118251 -0.02156918003 0.01998200278) 3597
(-0.03452721245 -0.03269574073 0.01970579506) 3543
(0.01456947291 0.03737536857 -0.0171043854) 1592
(-0.0005796296543 0.01662685301 0.03124812617) 4709
(0.01620313604 0.02925694377 0.03855490486) 5073
(-0.03829926461 -0.02748147484 0.03683404239) 4842
(0.02298021841 0.004204630333 0.001637439834) 2734
(-0.04540073154 0.01934674127 -0.03345962545) 540
(-0.01240898226 -0.001927364222 0.03437706816) 4627
(-0.03825537244 0.02492525041 0.02373221893) 4082
(-0.02484217645 -0.02193637876 0.03185209453) 4545
(-0.004120078718 -0.03924760218 0.006290194831) 2889
(0.01075364905 0.01293654221 0.02315000943) 4052
(0.02330318248 0.006934298111 0.0178698636) 3714
(-0.04725603193 0.0126324986 -0.02433840008) 1160
(-0.04841254992 -0.01608866617 -0.0315158674) 400
(-0.01219064101 0.02113070363 0.01517157609) 3767
(0.03116798751 0.03586546939 -0.01130141268) 1916
(-0.04419143131 0.005440927605 -0.01620271248) 1461
(-0.03595676928 -0.02391663911 0.03456752217) 4542
(0.002061265843 0.01240652523 0.009041383946) 3090
(-0.02032065894 0.003538870903 -0.0185127084) 1445
(0.02067865243 0.004649903583 -0.03387936492) 494
(-0.03960892423 0.03892862139 -0.0009453798495) 2542
(0.001292598757 -0.03533543009 -0.005468726195) 1930
(0.004673840757 0.01513726058 0.01174838931) 3430
(0.02830467038 -0.01763619717 -0.001337044515) 2335
(-0.04936590431 0.01529587407 0.03467791659) 4700
(-0.01249404811 0.0009515917719 -0.03544884852) 167
(-0.02740047133 0.009448029293 0.0193241789) 3704
(0.00138690886 0.01162705192 -0.02621011315) 850
(0.02238694124 0.007435592325 0.023543923) 4034
(0.01942199979 0.01485182961 0.03432881155) 4693
(0.0270510989 0.03100931653 0.0381500572) 5095
(0.02463334462 0.0360327035 0.01553264155) 3834
(-0.04502243238 -0.02317005749 -0.02002457521) 1020
(0.01146939131 0.0104052344 -0.02445925193) 1172
(0.0103756568 0.0294126143 0.03606307077) 5072
(-0.02016196941 0.02544043376 0.0118071098) 3465
(-0.02625490621 -0.03739599633 -0.01348733904) 1604
(0.01876065639 -0.03740010234 0.0284499218) 4173
(-0.01339605862 -0.01919248998 -0.02163641684) 1047
(0.002946929528 0.005483107519 -0.02936255188) 830
(0.03249892443 0.004228425131 -0.02031474273) 1136
(-0.01979503618 0.03587344369 0.03750687178) 5106
(0.01991807222 -0.02054214261 0.004284829824) 2633
(-0.02985256298 -0.01620125348 -0.02325840843) 1044
(0.03505467631 -0.002353495402 -0.009283590256) 2077
(-0.04846527432 0.03651832936 -0.03465384096) 620
(-0.03565383673 0.0188148137 -0.0004025815444) 2462
(0.04419457742 -0.03619228474 -0.008028789223) 1938
(0.02086108126 -0.007469618599 0.03643332815) 4934
(-0.02502353155 0.03119411995 0.006142036609) 3164
(0.03178767162 -0.0260033278 0.004488626438) 2616
(0.03818107578 -0.01784292583 -0.01414094145) 1697
(0.01215636944 -0.006518553981 -0.007049447807) 2052
(-0.03225285762 -0.02523552564 0.01654490268) 3563
(0.02859697597 0.0243153545 -0.03071963408) 575
(0.008062040741 0.0104112836 0.02375803883) 4051
(0.02134453358 0.0208151716 0.0210003421) 4094
(0.04439730845 -0.03090506145 0.03851311343) 4838
(-0.00729091141 -0.02765586171 0.01921099221) 3568
(-0.04265622804 -0.01036108142 0.0005576179102) 2661
(0.01795489544 0.0236531319 0.03536346092) 5053
(-0.02843962755 0.02816989826 0.01406710141) 3464
(-0.004717943342 -0.01728731501 0.03426030815) 4569
(0.01626341669 0.005496125113 0.03015462637) 4673
(0.005515405729 -0.02996390066 0.03155447855) 4531
(-0.0353622122 0.01621138936 0.02694897462) 4382
(-0.03354393853 0.03326840026 0.005397513626) 3163