/*--------------------------------*- C++ -*----------------------------------*\
| =========                 |                                                 |
| \\      /  F ield         | OpenFOAM: The Open Source CFD Toolbox           |
|  \\    /   O peration     | Version:  2.4.0-MNF                             |
|   \\  /    A nd           | Web:      www.OpenFOAM.org                      |
|    \\/     M anipulation  |                                                 |
\*---------------------------------------------------------------------------*/
FoamFile
{
    version     2.0;
    format      ascii;
    class       vectorField;
    location    "0.0006/lagrangian/dsmc";
    object      U;
}
// * * * * * * * * * * * * * * * * * * * * * * * * * * * * * * * * * * * * * //


64126
(
(1990.364044 75.73367386 -361.6054021)
(1768.734465 204.7022796 53.45526209)
(1901.976137 131.8201648 -357.5755429)
(2183.284118 264.0337369 392.1548819)
(1525.872812 -615.9027468 164.2663546)
(1947.526898 -357.658826 -366.7182947)
(2356.934847 32.72620926 -509.2061014)
(2293.05906 -311.4347915 -656.9307907)
(2001.236577 114.4884969 104.9603166)
(1790.602917 192.6262613 274.263228)
(2306.903001 50.84380101 164.7827773)
(2246.292957 37.60950223 1009.88127)
(1664.922688 85.36218586 17.80450088)
(1855.758344 69.355258 60.60457282)
(1958.741879 -97.35989684 68.04639297)
(2309.684801 -784.8086225 -145.9865928)
(1984.281746 231.751292 -578.4869891)
(2307.235272 112.4323168 -70.55589127)
(1552.221364 -252.5295632 239.7531702)
(1688.808524 -57.1149353 -79.1446331)
(2121.757044 -605.2536767 -203.6113213)
(2242.592302 167.5338028 -520.6321167)
(1539.955442 -232.5556316 -141.4425279)
(2125.60615 -199.9263552 112.970422)
(1941.492986 -173.7114245 271.0009198)
(1908.981327 -444.9609759 112.4395516)
(1896.336368 -46.37138292 -387.3807896)
(1623.009239 -113.0011946 237.1803202)
(1622.494611 -131.7944049 -253.3189072)
(1736.623342 161.9378672 285.0550136)
(2403.470152 -82.92040539 81.60059201)
(1642.790108 105.7445673 -137.839533)
(2077.336988 421.7982382 -314.3348706)
(1698.700127 174.5178796 8.579935807)
(1784.566466 390.1943788 247.0099941)
(2032.683322 300.4797119 2.65026081)
(1867.212241 372.4323877 -191.1995475)
(1521.29532 -396.7320532 -171.3724885)
(2066.081638 72.34003113 -287.9009749)
(1509.255439 43.11114847 45.90066611)
(2223.630825 -0.839536645 176.4321786)
(1662.850029 -7.878141376 -0.2624182767)
(1174.759351 337.2229826 748.5516433)
(1749.488086 -750.5182474 255.2707163)
(2022.300926 185.7443364 -380.3316583)
(1466.678544 -227.2505042 -210.97583)
(1816.243285 -15.36667442 219.8224118)
(2164.139487 -504.7433173 126.9248212)
(1821.481034 -316.923574 345.5292838)
(1724.890818 58.4362801 -289.5295799)
(1366.776744 134.8845622 -19.22506565)
(1884.223514 -163.2189216 94.24154715)
(2102.720967 -276.5317149 44.77459294)
(2179.84312 -369.4778868 13.9767161)
(2264.750066 -565.026933 -80.61264019)
(2063.13388 139.0809006 -150.1230244)
(1642.82074 605.3646864 -648.7533724)
(1740.804631 -145.1792589 6.44398073)
(1661.562557 -279.3989702 756.7444825)
(1913.989922 396.2936044 -165.1303604)
(1789.398962 -202.9356815 -34.50185338)
(1902.829863 -462.2276752 -17.89218216)
(2261.4281 -179.4230299 -34.17466312)
(1730.771534 389.5078265 93.02110185)
(2373.272323 -30.56887983 210.5381145)
(1956.366014 -232.3293745 -544.8485492)
(1785.688348 -58.83705929 138.1044719)
(1897.807593 182.6265939 -551.3320639)
(1698.225025 -513.5853868 62.2216773)
(1663.584423 240.0155857 -106.4277899)
(1325.15057 332.5586446 -136.6528523)
(1645.030941 -68.97213464 -122.7669794)
(1647.849219 530.1167237 -308.3512714)
(2067.885304 -274.987771 46.06133377)
(2107.890635 -33.3074716 -120.4012228)
(2101.438209 169.3892058 547.9435794)
(1732.340068 -385.4780599 174.4725884)
(1203.120422 145.8504505 339.6297583)
(2300.706542 11.35952881 -114.5703505)
(2128.843334 -99.98034267 -9.314036487)
(2151.194324 345.2184953 -369.4175148)
(1550.901976 454.7905836 -280.018298)
(1889.907123 59.97569309 557.995537)
(1574.037495 218.4573537 1007.834567)
(1815.8684 206.9537811 222.1044219)
(1413.999819 -120.4168736 426.1645692)
(1617.331694 216.9720216 314.5747009)
(1795.011873 119.8617852 4.522487901)
(2009.385624 -427.9214402 151.9909006)
(2109.096075 657.5176775 404.9528411)
(2049.432957 -305.9425143 -195.370631)
(1947.734696 364.3397096 -332.7985027)
(1901.806103 832.8778755 306.8039486)
(2049.181932 -169.5191019 375.9465382)
(1550.519745 -329.2929104 58.74333499)
(2165.046305 -440.4360887 135.1406391)
(2278.276829 401.6979515 -284.8978693)
(2254.604205 -474.2939939 471.4645922)
(1375.297294 232.1737975 -328.3073102)
(1810.29436 42.11080932 224.6953129)
(1886.397321 369.4763595 -290.0432416)
(1460.571261 170.0774568 124.0389931)
(1857.830987 86.02774122 3.774232238)
(1992.511986 -189.0487081 28.22671006)
(1908.804677 -306.104085 -220.386687)
(2012.945733 581.0120424 -47.11181341)
(2209.465023 -321.7628142 -120.5036895)
(1974.794594 -219.4337135 -98.81752457)
(1492.187351 -82.91727831 182.8720357)
(2363.072695 -49.77150604 165.9152896)
(1372.21403 -132.7433203 183.6593167)
(2056.021858 247.9058475 251.4263595)
(1919.838324 155.1155241 4.912840267)
(1913.812754 -257.5036428 -256.041084)
(2105.104242 -5.73624736 70.17969522)
(1781.057282 14.151755 149.4170423)
(1941.78499 -127.4496378 449.8250491)
(1981.910548 -18.38369742 319.6315415)
(2148.035435 -208.4927931 435.4321544)
(2205.058423 325.3352585 -273.6408614)
(1528.540924 -197.8193459 254.9313588)
(1850.062724 -241.4111231 -0.9487455125)
(2296.561828 409.1814123 51.24719641)
(2355.433926 201.425777 -219.3946407)
(1918.65583 -138.0916309 32.05699664)
(2181.169463 -223.4008394 623.1160395)
(1977.646043 -172.3102795 34.9433051)
(1824.160585 83.24045404 -79.11419948)
(1619.698232 540.0949729 234.5416838)
(1862.259536 586.0365678 -804.3110157)
(2016.058316 -33.38417588 265.2155956)
(1675.972584 -125.887852 25.61967289)
(1564.520206 -104.5073396 -80.02917099)
(2216.602603 310.9292922 237.2587043)
(1381.236754 -329.6056343 -434.1072829)
(1869.911033 -104.6600774 158.1892762)
(2262.825687 -410.5577607 -255.2796519)
(1959.28003 -235.1417536 111.1230478)
(2141.401149 18.53374516 117.8447078)
(1772.661896 504.5729583 86.4110547)
(1993.362408 -562.6640306 -426.8279539)
(2048.004143 438.9253702 -6.525395188)
(2195.050007 -103.6923317 266.4927232)
(1695.755771 -498.3157565 -225.130365)
(2241.768691 53.21842606 239.9064743)
(1732.433838 264.7112108 -257.0677828)
(1769.65439 -76.48189854 128.3785435)
(2006.418117 518.1735671 -583.7378925)
(2344.533648 413.0908782 200.0282294)
(1739.461953 -233.3282943 313.4169413)
(1748.803003 476.524397 414.2628962)
(1328.531753 15.5487172 0.5373152126)
(1617.920693 627.4321053 -113.8252619)
(1504.300611 -56.8865187 207.7752216)
(2243.303812 221.1240944 -168.3578902)
(1500.485577 -695.8606635 45.40625913)
(2142.62326 375.3972609 120.7411651)
(1869.650972 -209.4727043 -46.91185718)
(1933.736345 833.3424516 -407.4834265)
(1807.604802 331.9409995 538.1908824)
(1563.978912 495.6393173 -27.96116695)
(1896.624491 -182.721711 -51.60742699)
(2011.044346 95.65829007 -87.93046055)
(1755.137206 -472.9153961 49.95378668)
(2549.016248 -101.9793071 -308.4711686)
(1903.361286 -17.70207443 -238.2392136)
(1996.232419 367.3411382 186.9091507)
(1773.788053 96.46346621 -182.3652885)
(1586.462674 181.0326322 201.6023821)
(1780.627867 129.71127 -500.1317885)
(1769.798826 360.3262905 139.3856799)
(2013.295942 -190.4448463 -326.9566512)
(2080.982477 346.7605674 297.2828809)
(2046.872821 6.9851027 78.31447738)
(2020.395619 -198.0958994 216.9306022)
(1847.971633 -77.56890652 21.52458273)
(1972.696458 87.60814425 -438.6376906)
(1782.505365 195.9724361 143.312767)
(1541.550045 -638.2507655 -403.5727729)
(1594.534746 230.2509583 -221.2845242)
(1960.923179 666.6751385 -45.36136869)
(1390.983484 362.5037986 -603.7555788)
(1675.840727 383.7871451 -346.8777285)
(1643.039316 -269.3376677 200.6266517)
(1495.027815 644.2468803 -232.4083646)
(1689.388187 -66.38464314 -118.0764667)
(1877.028385 -408.4478699 3.417768539)
(1754.115539 9.430613383 -298.6809706)
(2315.053316 412.7739665 256.9342598)
(1629.299457 -217.8623323 242.1871133)
(2535.337611 -1.244257237 -390.6815329)
(1837.916052 331.1503026 -169.3024067)
(2301.714391 12.39358321 -33.47065172)
(2124.741279 -121.7332336 -174.9588524)
(2003.938144 -287.9906604 -236.4626487)
(1618.188674 -9.149481348 399.1679949)
(1693.620993 679.658974 30.68556418)
(1990.904771 343.3736552 96.30319235)
(1612.463685 -536.9375789 -146.2064827)
(1832.920635 90.37202159 -391.115672)
(2372.964767 575.412363 271.8494037)
(1758.978897 -331.0183155 -338.2655225)
(2291.586213 127.9526734 -657.8725084)
(2024.071884 -110.4837343 -273.682217)
(2372.363644 118.8873412 -329.9721831)
(1823.594612 352.2110401 -79.99957153)
(1757.747839 -252.1684031 134.7765225)
(2181.840244 -384.5869022 610.9151924)
(1998.848662 -405.3227565 358.6125381)
(2343.119184 722.9091673 125.5480797)
(2186.588819 834.8521816 -146.9736627)
(2594.072913 -351.4959352 -267.4185039)
(2035.478849 -342.7118463 217.7026229)
(2130.19099 503.0918733 59.45897268)
(1770.035048 134.9195878 303.0926389)
(2254.078816 -275.3119454 -357.786496)
(1582.747761 -65.19097623 -92.95438375)
(1889.871965 -4.000605054 686.8824042)
(1580.685906 -660.002089 276.8666581)
(1760.036724 -461.2276949 135.4957923)
(2101.815661 -162.8277236 -230.9826496)
(2090.422787 -597.2312052 112.2822568)
(1669.920483 -278.2641905 -123.9492583)
(1925.775248 46.45266758 393.957427)
(1862.265212 -98.61958969 150.941705)
(1480.010073 572.3526865 -77.32413857)
(2132.735954 -114.4798377 -190.663462)
(1740.274282 -49.2860221 -248.1031864)
(1779.998921 -269.4109436 173.6632092)
(1541.81345 -70.51831964 -93.22459594)
(1727.424684 72.37156655 243.8753759)
(2454.762389 -703.7856388 -598.9654272)
(1777.172081 -89.60506602 -574.9252979)
(2151.828923 -196.2062778 272.1343854)
(1707.287804 62.26991103 -535.1645983)
(1414.222687 324.2137012 -84.08599694)
(2423.079783 -239.1729039 -245.2783314)
(1903.962653 3.108973193 -291.947758)
(2359.11812 -288.4497642 580.906531)
(1968.584344 6.511175851 -186.3858847)
(2029.996626 56.57584657 -360.9284186)
(1989.349237 -170.2597002 -126.4773778)
(1966.464083 52.15415641 -52.24162881)
(1547.486377 323.6064987 140.3479487)
(2060.126276 -309.2651517 -327.7921945)
(1860.386295 169.183776 -345.8745536)
(1800.614663 61.32582296 -194.2906178)
(1767.032293 59.21261415 -183.573128)
(2131.040825 72.76204426 -40.0827898)
(1792.301462 -626.7334188 198.4888658)
(2552.297544 640.0198284 145.1444958)
(1707.170232 -159.8151446 551.1392815)
(1792.304575 347.1529115 132.8951841)
(2223.173791 -319.9460515 56.19782323)
(1802.266448 -287.7974695 348.6796555)
(2072.762505 -119.5223957 -23.23343539)
(2044.945203 -92.02072445 -239.9782486)
(1531.729288 392.2917155 -178.5686478)
(1707.628572 17.47185534 -197.923914)
(2356.855476 77.0918428 -97.18158163)
(1927.832866 182.5985587 -291.4504387)
(1922.598128 607.9753419 -58.71155374)
(2225.377752 -215.7934404 37.87408243)
(2395.914087 443.60063 -116.7958891)
(2114.432548 81.09886638 97.82346434)
(1844.024422 -291.5243655 -40.86560036)
(1734.453809 154.311982 -72.77280857)
(1836.219035 -101.7161648 -25.49503144)
(1989.34841 -333.3203279 83.5759279)
(2134.637591 -258.664115 77.74032424)
(2434.291006 -360.4586073 12.58694413)
(2206.112855 139.9823435 -182.5910983)
(1662.165059 30.28301218 -10.79914329)
(2123.549448 831.2616546 388.5997241)
(1717.382836 482.1562596 -45.80517141)
(2005.043973 51.45425195 135.7706923)
(2105.424271 -134.6886329 80.28377878)
(1963.755847 358.0589252 175.238315)
(2191.971067 -784.8326308 758.9725227)
(1478.957603 -256.7875799 -413.9873886)
(2063.504507 -86.96970808 -266.7106347)
(1793.856059 588.4584573 -146.0478757)
(2166.021765 -127.5603589 55.33616339)
(1716.53573 121.954644 -630.6032632)
(2153.519312 33.42826457 173.4675073)
(2013.489524 -360.2623897 240.4281942)
(2018.341631 -126.0553607 -597.8699837)
(1638.213735 -301.5671028 -165.9382285)
(1916.235814 175.8886651 74.94249355)
(1844.297626 17.89537804 58.56853907)
(2063.626638 -145.8258175 38.63583709)
(1561.806478 -44.22430003 -151.2059932)
(2008.848127 222.9403722 420.0777329)
(1817.708137 -336.8326199 -128.0513457)
(1722.017279 476.4004445 -283.0742625)
(1900.077205 -191.7327909 16.81489288)
(1676.551759 -335.2134985 252.6443582)
(2042.126183 265.897384 -322.7508682)
(1779.275264 -325.7656686 -172.1939959)
(2014.251204 332.8880905 373.5697659)
(1911.967165 34.38926374 -275.4422854)
(2026.929808 236.8356343 2.957245574)
(1674.059276 53.97876623 -131.2250178)
(2016.325865 -220.5159423 -2.000993137)
(1638.968352 196.2483545 295.5723838)
(1712.048946 -88.44051489 -73.64343742)
(1853.971987 249.3019487 -135.8368269)
(1833.270821 169.1876369 140.6219727)
(2461.552192 196.3232896 -475.2835737)
(1972.865924 378.6127326 -378.58318)
(2273.884725 -132.3711187 -188.9435827)
(1898.678689 80.12131961 298.9288646)
(2362.514278 660.3861794 -378.2746517)
(2509.221099 -44.37272939 78.87749688)
(1913.383245 268.0299715 -113.5125491)
(1258.337989 -196.2442418 59.7255457)
(1828.06963 554.7523465 264.1329472)
(2176.823819 -97.96180246 51.77298856)
(1388.746677 234.3001248 -171.1229005)
(1816.455622 313.6632724 -582.3225576)
(1462.195494 220.3989088 143.4509608)
(1777.821602 307.8591454 -158.8070063)
(2148.815908 12.61939374 528.4236323)
(1742.01614 526.8541383 378.00027)
(2304.397206 348.0987691 -203.7779091)
(1638.211455 252.6957181 -97.47381164)
(1308.983063 -399.0068986 10.78559938)
(1673.401891 -285.6797921 445.1824928)
(2022.603807 190.3685609 -371.5364473)
(2007.821782 256.3976644 -244.7396409)
(2410.995816 186.3876091 0.7874334414)
(2106.786501 -428.8307691 381.1987904)
(2251.486029 357.8578993 79.89385985)
(1951.944078 -264.6172187 411.8387912)
(1538.248737 115.8301738 -59.96352471)
(1726.951973 144.2791851 446.9360631)
(2121.179133 -22.04568894 -262.3966988)
(1487.814278 -199.1163638 230.0112349)
(2024.405032 263.2752339 638.3676348)
(1712.010177 -609.8281722 55.87972851)
(1659.529259 -198.1927452 359.3739951)
(1604.940208 -142.7798702 -380.7229266)
(1937.677553 179.7846405 -85.14286286)
(1911.006618 2.673064604 -333.0613256)
(1475.392938 -148.5769584 201.5229667)
(1717.975516 389.1778256 -559.4978972)
(1898.866533 126.147826 204.7431028)
(1884.992044 -20.9526798 -148.9988701)
(1717.620461 -103.3096447 -929.4219742)
(1749.03435 156.8436837 -80.25253952)
(2100.531334 -306.2194432 420.5268668)
(2163.731715 396.0901533 -171.519974)
(2072.061557 35.48105648 -305.2667425)
(2090.459267 -664.5646571 68.31995967)
(2328.959264 -358.2909027 -466.8426161)
(2550.737081 -244.2346816 -435.1874699)
(2329.675356 -175.2297074 -286.1251826)
(2312.954636 577.4033351 -358.3398621)
(1893.744405 176.8673771 639.9248122)
(1868.726516 147.0156626 -31.06373252)
(2156.977268 221.5642084 -55.12589906)
(2570.724581 351.6669809 -36.02133042)
(1973.272417 77.83268594 239.6554483)
(2415.764282 -250.5036795 217.9614497)
(2161.029122 -384.099308 127.8950607)
(1595.880745 -238.4622254 256.8251455)
(1782.489184 178.58795 66.85709633)
(1784.491042 87.19522091 -65.72360662)
(2197.991047 457.5650758 225.1933923)
(1930.823001 -567.2448525 186.1023205)
(1371.861318 151.1050634 214.2763615)
(2122.214588 89.18257138 211.8419592)
(1726.575779 252.010673 -232.5847592)
(2517.58675 302.4567718 105.0500506)
(2053.59323 97.54317232 111.0653368)
(2047.46061 -220.0033437 108.4806804)
(1921.553021 -201.4160286 810.060405)
(1721.543165 -44.75957969 190.2963745)
(1996.9505 39.98706063 11.19804772)
(1613.541486 36.27529737 -132.5379852)
(1773.22408 -36.71741645 -19.23542519)
(2138.752693 82.26336406 255.5134948)
(1893.156594 769.0442721 -121.8215184)
(2156.039534 897.5330646 94.99823968)
(2052.678102 -124.4407895 -248.8803615)
(1829.982067 103.1854877 334.44756)
(1853.508992 -55.71749901 100.3144007)
(1863.808201 438.049659 268.4858466)
(1967.970398 185.8851083 -12.5495908)
(1553.054171 -247.9933301 -50.44435039)
(2240.56263 -73.41955749 -442.8013795)
(2272.983231 244.7705435 -163.038093)
(1896.162767 -209.8360613 -407.7752665)
(1820.102979 -63.80546854 664.7962744)
(1528.796673 -176.8540171 -485.110931)
(2616.47824 -391.6041909 302.7738924)
(2051.652626 78.16721724 2.817311224)
(2462.31036 190.3926734 380.2577732)
(1881.247369 -107.6190257 -424.6824941)
(1424.150172 315.4963907 528.0260734)
(2036.907484 122.9415439 -54.40398993)
(1796.034666 141.3516952 -312.3098892)
(1864.421377 -133.4812229 -69.96612974)
(2257.957604 -143.6062883 137.7965008)
(2088.99067 92.47498019 63.55144554)
(1700.534464 -35.52245277 -45.40596843)
(1813.228739 -538.3634783 -135.3152909)
(2078.866161 192.2836184 291.4555736)
(1505.243717 250.2997392 106.6890268)
(1907.138821 -562.4780815 -557.7877415)
(1948.972407 -444.9356773 424.2632196)
(2006.334362 -84.28491165 -321.2336448)
(1737.397161 -194.3948362 624.5501224)
(1563.066794 -67.75241728 -135.715271)
(1405.358576 277.9337262 21.03884369)
(2402.39843 89.83997745 -491.8317322)
(1746.220201 16.5780319 256.7669398)
(1822.987064 -237.0061806 -181.1604515)
(2177.341692 267.0609259 37.25503194)
(1977.629772 30.97409864 232.3977717)
(2291.915242 -182.690579 340.9476262)
(1837.362594 235.6622062 456.0894067)
(1737.788646 -24.74069341 -134.9540439)
(1952.779435 405.7472717 -682.1748601)
(1887.052282 -154.2788153 100.8027558)
(1744.549883 -242.9305773 433.8028287)
(1543.538632 179.1081471 -142.3077509)
(1920.991711 52.29084951 -88.80401457)
(2015.662411 171.8096875 343.8099034)
(1685.80994 -257.1021589 230.8034931)
(2186.181374 699.8693913 122.347909)
(1801.612767 442.8169047 -226.0687704)
(1858.265184 -285.2053846 287.5815159)
(2138.196071 130.0953404 392.5841397)
(2300.530888 -179.2327738 261.9148777)
(1918.658711 288.8365427 334.7953898)
(1929.424117 -106.0072909 407.1190083)
(1681.657391 40.64863358 -285.8817192)
(1661.582519 632.5566905 -11.08475466)
(2296.913028 141.9945877 -110.5497998)
(2517.545523 -341.4590663 139.4216756)
(1834.690968 -161.3567026 -285.2222699)
(1614.685278 505.9487252 57.58747953)
(2204.958711 63.6873284 183.4763297)
(2276.278584 101.4211214 206.3946602)
(2321.152145 -387.5719741 42.67040694)
(1737.923212 -428.2175184 -199.9886081)
(2158.065721 187.2117642 -268.0166079)
(1967.163268 -74.49800522 -202.8678891)
(1543.927352 -512.1693123 40.49850563)
(2424.160546 -750.0303111 -54.77821483)
(2374.582581 73.73149741 438.402404)
(2381.519851 -427.781889 -144.3853667)
(2268.438098 -305.9458689 179.0223947)
(2015.116092 74.84217813 352.0098515)
(2234.492967 183.6238297 110.2570524)
(2170.084876 62.84427507 466.9801595)
(2036.51228 95.32284739 136.6551193)
(2332.150908 -30.50402874 -92.79856183)
(1943.894553 385.8486636 271.4849803)
(1659.469605 14.33434887 -92.00260273)
(2020.54103 141.3939293 -412.2911776)
(1810.19712 -71.67298089 163.3162208)
(1769.26867 243.5873797 450.9409843)
(1438.406332 63.63760454 -84.60281884)
(1877.944245 -280.5527731 45.23359936)
(1865.525828 398.4784101 -234.9167208)
(2454.904722 -60.33307529 -200.9455686)
(2388.903071 -330.1579511 -20.35928745)
(2001.1054 -136.5285437 -270.3747738)
(2286.32602 29.24481119 475.7917126)
(1992.163311 -480.6541563 360.9402163)
(1772.015279 -469.2298685 333.0644258)
(1678.877801 -110.4988449 -121.5714967)
(1835.364303 -298.7387976 48.4550496)
(2141.949431 150.4713415 -17.55169304)
(1604.318572 -142.3507331 9.715718412)
(1954.095455 384.9768811 295.5623503)
(1888.525059 -886.6176995 -208.6974133)
(2272.169988 42.02132137 373.9400349)
(2219.618413 -171.5277708 102.9336169)
(1746.010641 -84.71456405 271.3240762)
(1687.865897 95.77184851 -209.3409644)
(1237.967195 159.7102534 564.6141841)
(1619.668148 182.8359687 -68.28108448)
(2098.164565 -424.6519361 -186.5451781)
(1855.591046 -199.0732665 420.611756)
(2054.209098 325.9168272 -280.637889)
(2094.695785 -94.81115445 -27.73577708)
(1896.954616 -64.73230692 30.52201521)
(1624.601543 353.1329251 509.8758964)
(1946.46689 171.0224365 315.2926219)
(2016.849642 388.5710196 -118.8841475)
(2212.451365 151.4625012 78.76763457)
(1911.453768 -510.4088282 427.6157699)
(2173.609881 306.8452938 298.8457156)
(1601.282133 431.9104841 -75.3189618)
(2020.415326 363.6376667 1047.171567)
(2649.801897 -32.09487625 -507.2561303)
(1886.990241 142.1039044 56.79530103)
(1892.075708 187.0451842 77.50851981)
(1949.832696 -117.5691059 166.9025252)
(1956.896587 403.8689097 -342.1421258)
(1097.939844 -148.0563826 -296.9442064)
(2135.365788 176.6257291 -169.6254184)
(2094.780442 -406.3863113 394.0963728)
(1635.741722 -306.4053544 -117.1702653)
(1667.146527 476.2319487 -345.4251952)
(2092.801812 385.1693259 266.8337256)
(1935.189356 -406.5241794 207.6554322)
(2126.985274 398.1667722 131.1193156)
(1911.060861 -214.2348378 -748.6709707)
(2121.541989 -132.9070098 485.1810294)
(1676.592322 -48.53060463 38.70061444)
(1896.877623 -108.3617003 428.8549627)
(2296.008421 485.4234285 291.7997211)
(1764.956612 146.9881347 -123.5505054)
(1368.337783 129.7492587 310.3063927)
(2186.482686 -713.4600288 -370.8268666)
(2127.106177 -364.1590308 404.7920624)
(2143.990944 186.6461245 266.4975057)
(2154.123543 -187.192065 -394.261216)
(1840.024154 629.8873138 -338.0861337)
(1971.939786 72.87046498 77.02998103)
(2045.04094 -310.4364979 291.9453947)
(1858.85299 332.034398 -377.8844356)
(1672.097735 -420.2688345 -222.0162884)
(2401.86128 -175.2377024 325.3729256)
(1971.583861 -74.92049489 -354.5464788)
(1885.388419 -277.3266405 -27.31718798)
(1697.914712 288.9658383 32.16614451)
(1878.381175 -37.8741876 -260.9192165)
(1520.154074 -183.6608033 -49.69150075)
(2329.897476 32.1482518 -65.63479461)
(2537.315777 271.405755 -12.91339943)
(1882.363109 -220.3757283 -587.542338)
(1864.08612 304.1792683 245.7220487)
(2056.869957 343.3757466 4.973025237)
(1592.592547 -38.56377152 432.548938)
(2321.16473 260.6932132 -71.8871951)
(1766.695389 -613.3750455 -473.6603784)
(1775.831301 -614.848599 141.5096607)
(2163.152469 134.1751661 439.5973639)
(2390.712668 335.9527721 331.2327144)
(2225.936422 482.0113514 412.2802123)
(2315.765734 -282.7739344 532.0174254)
(1498.897569 308.0908305 215.5606224)
(1736.685206 52.75572235 -324.1006698)
(2307.315286 -63.00213677 65.58392147)
(1781.069218 412.6850309 600.4640094)
(902.1495034 -63.66174692 201.720993)
(2098.343789 181.4696825 -219.6275531)
(1801.021939 145.827754 -247.0039507)
(1912.554567 65.60400145 19.15804782)
(2180.942271 -87.95717477 -378.0572578)
(2569.517368 -171.989441 -754.795389)
(1797.861938 69.84638603 239.9428086)
(1833.558848 320.4807331 -150.9784149)
(2200.468236 -146.7823243 386.6568797)
(1839.097689 -1.354102304 480.3449389)
(1685.280199 222.4850563 -308.4874763)
(2151.774444 -8.389606484 135.6157315)
(2074.578937 -12.9629665 -624.3339469)
(2271.64935 219.1467182 -119.2552864)
(2010.834296 167.1621902 675.1770382)
(2054.401564 61.72706611 -604.004391)
(1742.419673 -33.568492 343.7838505)
(2491.696765 284.8615167 -100.6937776)
(1879.003713 -177.2621077 -443.6632749)
(2259.509823 105.1217769 -104.0661694)
(1806.664445 -425.2866748 407.6576172)
(2223.846624 -941.9001083 -0.8308875961)
(1626.815791 -0.3748182175 143.0179968)
(1888.452051 -310.299536 283.3210458)
(2064.588728 600.5488405 -373.5102002)
(2502.764462 -475.0178498 189.6914036)
(1707.330577 5.145489387 -68.43480035)
(1524.845562 -64.10659729 36.13840916)
(1924.030638 -180.7577856 338.576515)
(2352.07271 59.82242577 266.4409583)
(1775.764117 -328.5403056 208.0936512)
(2102.881236 -232.8051904 -224.566503)
(1677.170541 263.6813084 10.43791991)
(2309.18704 -450.406166 -563.3536975)
(1786.82617 -74.31689048 101.1187677)
(1886.800062 -256.8747762 46.40184061)
(2113.338413 112.8718995 281.7699731)
(1668.166152 116.0089056 294.546172)
(2074.275622 103.5482953 310.7295561)
(1981.81659 -668.84796 -244.0703211)
(1860.210142 321.3053208 -3.2857025)
(1857.875134 595.076481 119.9408776)
(1146.011278 -266.8429737 90.04817104)
(2181.385919 -40.41761406 -113.2337671)
(1998.978381 -125.9723994 -260.7778918)
(1761.961366 -32.33942038 422.6331527)
(2152.844912 -221.602624 51.13290463)
(1996.831007 -99.03893644 51.40262336)
(2108.607181 -634.9622748 -432.4838675)
(1546.540896 -216.4274415 173.0408359)
(1780.758457 -75.28624296 394.9066734)
(2177.521131 -170.4243343 -578.0010411)
(2068.496414 -219.7150982 -600.7194602)
(2179.037472 515.2438629 -442.4963523)
(1943.545348 -188.220399 -26.51391784)
(2542.068269 97.03555622 135.5584925)
(2175.895398 307.3537593 554.1463634)
(2105.199468 -51.13032783 -187.2123531)
(1785.976958 142.3476512 61.27955602)
(1842.91373 -496.5445353 -232.9460599)
(1931.171243 397.8778179 299.4629849)
(2104.062109 329.457674 -219.6138399)
(1882.070075 -345.1522708 -272.5910471)
(2213.556661 240.6620347 89.44348847)
(1818.432081 221.7816524 -731.5227307)
(1538.683913 28.65456198 105.3932032)
(1958.569107 -116.529195 195.7484258)
(2354.780857 385.9668126 -214.4861706)
(1497.061399 109.1468949 230.7818)
(2085.044514 31.1900448 331.1469219)
(2471.490015 -109.0059023 -141.7969794)
(1688.709834 353.930251 168.3222341)
(1803.633966 -118.9104166 282.5151503)
(1763.995831 428.1647616 415.7938657)
(1766.760531 228.1814026 380.1963384)
(2624.922525 -139.8211574 -20.7107568)
(1865.817802 -87.19614921 338.1306555)
(1956.173126 -306.9354039 -182.072037)
(1974.715419 139.8975324 253.024234)
(1651.250346 121.2857021 -130.1800224)
(1110.875355 53.09582701 -324.582293)
(1469.244472 405.6953954 -130.0785637)
(1746.335708 -14.19151771 113.1711919)
(1291.870376 -757.4311607 693.9136127)
(1960.365707 565.5450699 225.7422066)
(1751.226324 -104.7647347 -195.8955026)
(1768.855512 -367.8016231 -94.9932201)
(2041.459686 -119.9560668 40.32509434)
(1999.157258 482.0742432 -83.38031287)
(1919.449286 -271.7821453 134.9306568)
(1589.291205 -128.6625293 31.47698751)
(2134.871502 -262.0355974 143.9784576)
(2274.946277 -59.19772093 -547.1198159)
(1690.531923 -65.29568055 -660.1788066)
(1862.906916 -528.2630452 -563.6855396)
(1997.320778 -14.8840209 -392.8677021)
(1655.521921 18.01595813 -329.8128806)
(2034.135421 -3.059774786 -6.800760015)
(1849.549166 -98.93214695 -65.57330285)
(2723.305209 -482.316481 -2.582855505)
(2545.306931 390.5943386 -542.5426075)
(1548.326834 -400.0956263 411.9496557)
(1095.196144 -250.0630385 103.5515926)
(2186.144696 -272.3715644 76.18221956)
(1857.138289 382.3821593 400.0385482)
(1910.94561 -165.5765162 110.846253)
(1957.751688 37.97252401 -183.9432562)
(1790.221725 -539.1782329 -498.234273)
(1368.288552 -116.4646192 -207.8088882)
(2116.674994 -3.669689714 -502.223714)
(2173.544346 39.23916143 -66.7722336)
(1811.768581 710.0383522 -252.3853935)
(2285.973254 102.6746591 -225.8542439)
(1700.734149 520.8702945 8.569567286)
(2409.818696 95.59358718 -61.54787422)
(1513.624846 -259.6269654 149.1358633)
(1946.631345 415.8473309 -359.7198319)
(1781.900508 214.1654442 341.6297756)
(1818.362845 3.53138497 -172.1948827)
(2057.343907 445.8808814 -178.3578864)
(2146.491724 -8.916661701 -79.75689928)
(2194.747854 -78.18905928 160.016659)
(2716.142383 -469.5518564 -109.1312297)
(1723.074988 135.0924071 -546.866002)
(1709.696788 -150.3838237 122.8350244)
(2203.388575 241.2678753 -388.8835241)
(2333.624728 -374.332313 -70.73723316)
(1841.034743 407.9413642 -105.6411788)
(2545.408961 -180.6482854 -355.9036753)
(2340.283982 76.55743198 32.27209602)
(1656.067277 118.4228825 -71.34861224)
(1918.999764 355.2478955 -527.4012909)
(1720.400647 792.2127633 494.7451527)
(2395.629059 -469.4734276 215.5883172)
(1649.851855 240.70945 182.0055762)
(1719.434909 -608.8887369 120.3708955)
(1674.071223 -51.92067076 145.7424726)
(1997.109085 -214.7435031 136.1690894)
(1901.473959 26.69227115 -422.8046349)
(1824.734662 -33.85321099 69.75708178)
(1825.718448 -186.6958145 -38.34903828)
(1732.069701 160.1925708 385.0374283)
(2057.582775 161.4640815 292.6481193)
(1681.439816 40.81243556 289.2813956)
(2364.488225 18.05725895 -180.0514141)
(2560.753332 -277.8209374 473.2294347)
(2216.108495 197.5257274 0.441915062)
(2109.449396 -206.1975058 -320.8175733)
(1953.197562 30.70131932 -471.3200002)
(2203.934722 -150.8269175 131.1320579)
(2021.250951 -107.2485854 222.8610443)
(2042.258552 -666.7623371 -273.6143467)
(1562.304387 228.4541553 -199.2408448)
(1984.917883 24.73651059 253.1225588)
(2169.742164 -53.79188106 -469.0401528)
(2162.700835 203.4804974 -289.6941632)
(1962.289261 319.2035417 106.759108)
(1804.073684 -82.60849324 13.1106466)
(2167.409781 419.4972667 -274.4212735)
(1799.584493 -192.8705928 -165.3083263)
(1716.216016 -460.0234001 118.6735508)
(1846.529418 447.3096463 -279.644784)
(2607.738406 53.33991964 184.5501868)
(1607.300956 283.9153777 163.4794446)
(1772.963508 -246.4476482 519.9550539)
(1967.706157 -317.1489393 -153.1238506)
(1752.987444 76.01852257 -312.5939614)
(2092.627604 413.3592991 139.8106738)
(1437.664521 -422.160645 -397.2565321)
(2543.822284 -78.28225871 -103.1822495)
(2056.407195 90.81456465 -163.2329515)
(2140.350552 -276.2262207 286.9736223)
(2016.780571 -162.3330765 -400.8024792)
(1730.53157 -380.1540998 471.7522759)
(1721.978417 -165.6274027 113.4789096)
(1749.413068 -13.99777248 327.4341875)
(2236.889089 490.3760037 108.7448505)
(2039.55123 -287.6027881 437.5898308)
(1820.482174 -179.4056637 -304.7335978)
(1737.194819 141.1483358 -177.6933721)
(2205.210503 -481.9940705 -234.364273)
(1892.554675 -14.28193194 232.8235361)
(2437.683802 507.947727 -359.4717367)
(1759.865794 219.6308416 416.4035002)
(1413.301312 -412.7653337 180.7441691)
(1705.06073 -101.2488054 196.7655102)
(2289.178592 -282.0826556 -29.1753482)
(2138.653978 -745.4176034 420.491484)
(2081.225047 -127.2911998 -221.8439474)
(2245.39852 47.38769138 -125.1643774)
(2160.56387 -86.32207307 59.65589718)
(2142.367995 67.17712754 -271.872393)
(1925.291295 -182.5481453 171.2198517)
(1166.647385 296.3026208 274.606706)
(2300.077449 628.1356099 -71.64522375)
(1739.15149 -37.71684168 237.1390399)
(1788.694314 361.9652898 664.9595151)
(2132.49378 34.63671072 -322.5891919)
(1686.277162 -112.6186342 -239.9899734)
(1839.877116 65.35785645 -121.6191479)
(2409.394529 -202.8548131 124.5611092)
(1976.55088 -483.2919812 -486.6913442)
(1038.306989 -272.3861143 50.8264307)
(1966.948582 136.3143827 -269.6301562)