/*--------------------------------*- C++ -*----------------------------------*\
| =========                 |                                                 |
| \\      /  F ield         | OpenFOAM: The Open Source CFD Toolbox           |
|  \\    /   O peration     | Version:  2.4.0-MNF                             |
|   \\  /    A nd           | Web:      www.OpenFOAM.org                      |
|    \\/     M anipulation  |                                                 |
\*---------------------------------------------------------------------------*/
FoamFile
{
    version     2.0;
    format      ascii;
    class       scalarField;
    location    "0.0007/lagrangian/dsmc";
    object      ERot;
}
// * * * * * * * * * * * * * * * * * * * * * * * * * * * * * * * * * * * * * //


64126
(
3.238556264e-21
1.082868238e-21
9.344563698e-22
1.781475363e-21
1.24080808e-21
2.897074521e-21
3.271020628e-21
7.202696026e-22
3.25982773e-21
2.297520972e-21
1.18310337e-21
6.997820683e-21
1.119446548e-22
3.643858434e-21
6.7520206e-21
2.01618764e-21
8.268602676e-21
3.924252083e-21
3.254030681e-22
1.100610426e-21
4.181552071e-21
2.374267025e-21
1.475667553e-20
4.018811268e-22
1.059612321e-21
9.150543779e-21
2.034296224e-21
2.824210828e-21
1.251761447e-21
1.07971833e-22
2.030209041e-21
2.315492869e-22
4.947248202e-23
9.389273012e-22
9.636111826e-21
9.546277499e-22
8.456404555e-22
3.008797159e-21
1.165365256e-20
1.406955938e-21
8.911626789e-22
3.989940939e-21
1.453396664e-21
1.630274004e-22
3.050741576e-21
4.424697802e-21
1.453416704e-22
1.571758221e-21
1.018361958e-21
1.551783296e-20
3.347977053e-21
4.122705876e-21
2.655038747e-21
5.141802027e-21
8.751754835e-22
2.74007587e-22
3.889544154e-21
1.983028581e-21
6.603330912e-22
3.293401366e-22
4.438669372e-22
1.127792894e-21
2.126888847e-21
6.265804642e-21
7.21156057e-23
2.204587389e-22
3.841081463e-21
5.4344498e-21
2.061245101e-21
7.002591788e-22
1.193094218e-21
1.475802003e-21
3.609910971e-21
7.264797251e-21
1.85665246e-22
1.690401009e-21
2.705677547e-21
3.555729818e-21
4.092073954e-22
3.445945928e-21
2.548563053e-21
5.747912486e-21
4.746615535e-21
2.396968437e-20
1.88246265e-20
1.797410576e-21
1.390850648e-20
2.19875517e-21
1.283466551e-21
6.183626384e-21
9.976432921e-21
6.457427706e-22
7.865257526e-21
1.551330531e-20
1.176074141e-21
4.135133615e-21
1.037092714e-20
4.29682463e-21
2.526220241e-21
2.9718976e-21
1.358786809e-20
2.40544991e-21
4.115508511e-22
2.292012651e-22
7.279987693e-21
3.718893816e-21
1.523986228e-21
1.664220804e-21
7.382981544e-22
3.466504075e-21
5.695126467e-21
1.3294224e-22
1.548692109e-22
2.60205807e-21
3.806300053e-21
4.317502315e-21
1.602528967e-21
2.186708988e-21
5.406588795e-21
3.274544463e-21
4.154906598e-21
2.367399426e-21
7.610466019e-21
1.324178117e-21
3.856442097e-21
4.446021198e-21
7.480507639e-22
1.628495823e-21
5.104334114e-21
3.94803288e-21
4.132481559e-21
2.212919238e-21
2.383068276e-21
1.505271816e-21
1.676998913e-20
8.3125035e-22
6.823720817e-21
4.126026693e-22
1.181293623e-21
5.261041639e-21
3.033813588e-21
4.532521294e-23
1.736088425e-23
9.649812001e-21
5.198311671e-21
4.796847291e-21
4.677848901e-21
5.004091172e-21
3.117576264e-21
3.885252346e-22
2.897042258e-21
7.826575378e-21
8.900348023e-21
2.883080766e-23
1.637099085e-21
2.435054357e-21
1.639610425e-20
3.077953896e-21
1.466120869e-21
1.363188553e-21
2.258974636e-21
2.51821315e-21
1.130493872e-21
1.137754743e-20
4.166065821e-21
8.151804113e-22
6.107687055e-21
3.192300054e-21
1.126393405e-21
1.67756936e-20
3.048422403e-21
8.213322683e-22
3.652610699e-21
3.869328124e-21
2.909389841e-21
3.662456465e-22
2.709319874e-21
1.019098654e-20
5.5564748e-21
1.078178648e-20
1.427330127e-21
4.103441347e-21
2.430038546e-21
2.124374025e-22
9.303651334e-22
4.070634656e-21
1.890076111e-21
4.225233782e-22
1.765771789e-21
2.252756196e-22
5.85989996e-21
3.994259364e-21
3.094554893e-21
2.354402046e-21
1.228701515e-21
5.972807886e-21
2.67174414e-21
3.779374202e-21
5.684148043e-21
2.213494971e-21
1.078750902e-20
1.260688507e-21
2.858642646e-21
3.267073272e-20
1.419868435e-20
3.608912405e-21
2.54808341e-21
9.565416166e-22
8.859741784e-21
1.07204679e-20
2.736017146e-21
1.6977506e-21
2.24728737e-22
2.266176358e-21
9.087430618e-22
9.902070123e-22
1.117050804e-22
3.361839548e-21
1.816619669e-21
1.678688819e-21
9.121292796e-21
1.0426882e-21
2.307156322e-21
6.242212253e-21
1.35033797e-21
9.434409937e-21
3.321767654e-21
7.157806836e-22
5.443815572e-21
4.239015539e-21
3.174919128e-21
2.102458568e-20
2.458563231e-21
3.141940357e-21
2.000827001e-21
1.152268803e-21
5.187705092e-21
2.438663525e-21
1.711910242e-20
3.959022214e-21
4.412120308e-21
5.724024456e-21
1.01423234e-21
1.913342922e-21
3.859500976e-21
2.746058558e-22
7.689604338e-22
4.663158068e-21
3.272147517e-21
1.974055968e-21
2.431064362e-21
5.354952934e-22
1.206517028e-20
3.057810929e-23
6.483875401e-22
1.903038576e-22
7.933755636e-22
2.704227315e-21
3.392151338e-21
5.489498134e-21
3.169481793e-21
4.499585001e-21
2.733653145e-22
2.779469917e-21
5.04627475e-21
2.567383241e-21
1.071816817e-20
4.157270598e-21
6.551010662e-21
1.048533961e-20
2.882303267e-21
3.227942819e-21
1.247606109e-21
1.044280954e-21
1.402553735e-21
8.379890916e-22
3.093708397e-22
1.688445719e-23
3.361057006e-21
3.252301325e-21
2.53250608e-21
6.70087814e-22
4.267127526e-21
1.64069342e-21
5.358680721e-22
9.709266794e-21
6.46077003e-21
5.999510702e-22
2.899266403e-21
1.329336894e-21
3.498915072e-21
4.215485262e-21
4.79296003e-21
1.953648244e-21
1.492164994e-21
1.579730239e-21
5.238323254e-21
6.191650031e-22
4.227502225e-22
3.383417167e-21
2.915583488e-21
5.005682088e-21
1.064250364e-21
3.132354704e-21
2.236501839e-21
1.631477837e-21
8.193595981e-21
1.796978379e-21
2.425772729e-22
1.868990453e-20
1.3762301e-21
2.395686206e-21
1.825831874e-21
7.568409244e-21
8.644181987e-21
1.033572259e-20
1.751455836e-21
6.832606344e-22
6.137241467e-21
1.055931601e-21
1.603920998e-21
2.139175112e-21
4.888929161e-21
1.085380182e-20
3.869021188e-21
2.727299967e-21
6.775950465e-21
1.011368435e-21
1.476674006e-20
5.105952851e-21
4.671558619e-21
2.661158933e-21
5.767287678e-21
5.196292465e-21
3.256026051e-21
3.679811988e-21
1.107934731e-21
2.339652e-20
9.703179361e-21
1.115572808e-20
1.619748748e-21
4.850016708e-21
4.014125209e-21
8.065968244e-23
1.051530981e-21
1.061813434e-20
3.570901467e-21
7.225133671e-22
2.413499615e-21
1.134191936e-20
2.602220808e-21
1.019622892e-21
1.393301354e-21
2.82709393e-21
9.856771167e-21
2.671415552e-21
8.553508588e-22
1.083599646e-21
2.015977523e-20
1.40114308e-21
2.907518926e-21
1.587061968e-21
4.453903981e-21
1.560941562e-21
3.194748347e-22
3.507396521e-21
3.167388587e-22
4.038279945e-22
5.748909128e-21
5.719253743e-21
9.286825742e-22
5.232920824e-22
4.93155933e-21
4.297004022e-21
1.665909137e-21
5.591856755e-21
3.195754405e-21
5.812455327e-21
3.044349183e-21
2.937520495e-21
3.903554905e-21
8.186208446e-21
3.124991347e-21
1.853687913e-21
4.393269252e-21
3.799875167e-21
3.387179215e-21
1.00137783e-20
6.531431389e-21
7.334823671e-21
1.325453594e-20
3.008918005e-21
2.126645847e-21
9.009973852e-21
7.54552137e-21
6.517131728e-21
2.656798504e-21
1.896371236e-20
8.427587292e-21
4.332877973e-22
3.054479058e-21
3.182369712e-21
5.844825347e-21
9.547562146e-21
6.940693352e-22
2.86096378e-21
3.630290162e-21
1.046273972e-21
1.425697519e-22
1.40790944e-20
1.363083515e-21
2.273205147e-21
9.300966364e-22
1.44842756e-21
1.333725001e-20
2.741750975e-21
1.234798333e-20
1.174419239e-21
1.642843093e-21
8.147262047e-22
5.033756425e-21
8.390955819e-21
8.417249812e-21
4.700252251e-21
2.495060338e-21
8.098150155e-21
6.525134187e-21
3.898705155e-21
6.261778163e-22
4.867883924e-21
1.6285163e-21
1.618507543e-21
1.196707662e-20
5.097192e-21
9.466196201e-21
6.477264625e-21
4.030229663e-21
1.329337189e-21
2.228272628e-22
6.331520687e-22
1.533859818e-21
2.517571793e-21
1.027393764e-21
3.490958151e-21
1.034506198e-21
6.855272559e-21
5.30392229e-21
9.002213592e-21
3.444051624e-21
2.227928912e-21
8.119610707e-21
8.942366289e-22
1.031566269e-22
1.60950907e-21
2.169562604e-22
2.327701343e-21
3.954622405e-22
6.760275936e-23
5.284573266e-22
2.537493076e-21
3.376442318e-21
4.713585855e-21
1.277835983e-21
6.097241217e-21
4.565412743e-21
5.866684893e-21
3.515443025e-21
9.475614776e-23
9.191281242e-21
3.30453283e-22
7.95503456e-22
1.736487379e-22
7.58030811e-22
7.953037534e-24
1.015728238e-21
2.522076826e-22
8.433626024e-21
3.291444864e-21
2.743102432e-21
5.403774234e-21
1.607568415e-21
4.762327537e-21
1.140292778e-21
2.863351125e-21
1.203099945e-20
2.019578609e-21
6.742812856e-22
8.122748652e-22
4.97433177e-22
1.433836512e-22
1.110275227e-20
8.223297213e-22
5.552953322e-22
1.085747855e-21
4.093911105e-22
1.917137786e-20
4.27527479e-21
4.98266273e-21
1.885312509e-21
1.256605814e-20
1.447834888e-22
1.969888739e-21
2.98862633e-21
4.278047125e-21
2.07071136e-21
1.94765743e-21
2.223956296e-21
3.291998003e-22
9.771343684e-23
1.124856944e-20
3.087161593e-22
9.648480979e-21
3.626660142e-21
3.726919143e-21
6.746508422e-21
8.046433361e-21
1.29506898e-20
5.099545657e-21
3.909058045e-22
1.435122918e-21
3.114493523e-21
4.624242193e-21
5.37581665e-21
2.070948198e-21
4.122135217e-21
2.884631733e-21
2.743607816e-21
6.055761861e-21
8.663293879e-22
1.302702488e-21
6.610136056e-21
1.170506809e-21
2.579136253e-21
1.49356636e-21
2.264201193e-21
1.759762649e-21
2.928527156e-21
6.438420633e-21
2.756894045e-21
1.518278464e-21
4.742367458e-21
1.055930244e-20
5.346681344e-22
1.487866782e-20
4.651753407e-21
8.810362265e-23
1.492319138e-20
2.908708962e-21
1.112946337e-21
1.554615624e-21
1.629693445e-21
2.16366661e-21
7.404810677e-22
2.290346607e-20
4.800829776e-21
3.407441589e-21
3.94788096e-22
9.918726805e-22
4.385939451e-21
4.363998382e-22
1.374945394e-20
1.68459335e-21
1.18485454e-21
1.176583375e-21
1.222936566e-20
2.353189601e-21
5.621717818e-21
3.602996183e-21
2.072432967e-21
7.26589484e-21
2.345593216e-21
2.92050797e-21
4.402279239e-22
3.658059328e-21
3.620615043e-21
1.505031532e-21
2.101044268e-21
9.421360808e-22
2.519053595e-21
8.693745686e-21
8.341398227e-21
1.145564514e-20
1.941688069e-21
2.734277084e-21
2.603522968e-21
1.333244046e-20
1.733445321e-21
2.052133159e-21
7.052305721e-21
9.154303776e-22
2.092865814e-21
1.775167269e-21
1.722566853e-21
6.304801442e-21
1.248149723e-22
6.753900009e-21
2.619199051e-21
1.540388133e-21
2.368980752e-22
1.63816844e-21
6.890907861e-21
6.32861407e-21
6.105478769e-22
2.783983299e-21
1.761229232e-21
1.017272028e-20
3.817345446e-21
3.953996339e-21
3.786163545e-21
3.581081116e-21
5.382255772e-22
5.694718753e-21
8.449567863e-22
3.785339597e-21
8.805228213e-21
3.142371024e-21
5.36978688e-22
4.267159131e-21
4.524416831e-21
2.743113988e-21
4.819197375e-21
3.837920101e-21
4.986189184e-21
2.513094059e-21
1.612541222e-21
4.228863424e-21
1.193784458e-20
8.28668325e-22
4.422424187e-21
8.684112515e-21
5.317095697e-21
7.562677911e-22
1.472628896e-21
2.08027186e-22
3.558148656e-22
1.860682282e-21
2.210284693e-21
2.212956322e-23
1.331798876e-21
4.444222602e-21
1.538000006e-21
7.600627547e-21
1.432865799e-20
7.601055158e-21
5.752626957e-21
1.852844806e-21
9.721236498e-22
1.166213821e-21
1.018738599e-21
2.550067122e-21
1.402295154e-20
6.097760921e-21
5.339714548e-21
3.279643561e-21
8.565596417e-22
1.676930942e-21
2.113121295e-23
6.011609691e-21
9.530619675e-22
4.981742504e-21
6.245052178e-21
1.639503727e-20
1.408894082e-21
6.502708535e-22
3.406048586e-21
2.358948354e-22
2.546931279e-21
2.156878454e-20
3.730031571e-22
2.036499812e-21
5.929031115e-22
1.552039636e-21
9.123606709e-22
7.283393622e-21
1.299188292e-21
1.115563879e-20
2.238114471e-21
1.34322391e-21
3.185579188e-21
3.838863231e-21
5.251500011e-21
5.309296542e-21
1.619298902e-20
7.167529806e-22
1.670836872e-21
1.346495431e-21
6.965378035e-21
6.211804488e-21
1.964181773e-21
2.003500939e-21
2.856372672e-21
1.330791178e-21
1.672503739e-20
6.389358357e-21
5.214132241e-21
1.411864593e-20
3.100969927e-22
7.119542092e-24
2.05013394e-20
8.993603379e-21
1.98099144e-20
1.017027811e-20
2.618851072e-21
2.912068469e-21
5.545278388e-21
4.641027189e-21
1.288582331e-20
7.106858129e-21
2.051102228e-21
2.608512651e-21
1.391052097e-21
1.404792951e-21
1.243972287e-21
1.244402287e-22
9.748401713e-22
5.756392773e-23
2.256147243e-20
4.976464191e-22
4.809443611e-21
2.630935594e-22
4.256874207e-21
5.930844286e-21
4.875485984e-21
2.542311007e-21
2.105359078e-21
3.549017936e-21
1.478998663e-20
3.987532109e-22
7.22197983e-21
8.047657161e-21
1.827859481e-21
2.805030224e-21
2.440762059e-21
4.736559455e-21
5.075229843e-21
2.798858634e-21
7.953988432e-21
2.091119525e-22
6.241404124e-22
3.45791823e-21
1.283979056e-21
1.144369162e-21
2.886396982e-21
6.64521656e-21
1.897688017e-21
2.63419583e-21
9.138339533e-22
2.888299676e-21
5.172278575e-21
7.069742096e-21
3.144527822e-21
4.192355118e-22
6.041290846e-21
7.375909326e-22
2.679890149e-21
5.99805427e-22
3.525021071e-22
2.078185844e-20
6.097729924e-21
8.48445201e-22
3.953112778e-21
8.271961861e-22
2.233721235e-21
4.494316562e-21
1.367460383e-20
3.478261658e-21
7.509170488e-22
3.345322045e-21
8.714118582e-22
9.674175584e-22
6.613431263e-21
3.630554528e-21
5.042988082e-21
1.682612916e-21
3.233276271e-21
4.670057874e-21
1.687955918e-22
1.642180617e-21
6.633285904e-22
1.409931241e-20
2.687939638e-21
2.161636419e-21
8.721765449e-22
1.092341525e-20
3.54019521e-21
8.340953911e-22
1.591290385e-21
2.933572128e-21
2.165635644e-21
4.698047692e-21
6.646442453e-22
1.117351358e-20
3.953839221e-22
3.032237132e-21
8.415717736e-21
1.835095129e-21
6.316426892e-22
1.495121747e-21
1.8939738e-21
8.903731702e-23
7.106811002e-21
1.896538374e-21
6.806495913e-21
4.566808439e-21
2.269087487e-21
1.628975399e-21
1.394754884e-20
4.363327011e-21
4.19228382e-21
7.192375126e-21
7.067570157e-21
1.049647547e-22
3.036367405e-21
5.134402343e-21
6.260869039e-21
2.819916683e-21
8.391515927e-21
3.572319215e-21
3.970804241e-21
2.281045576e-21
1.136874738e-21
2.120740436e-21
4.804561323e-21
2.992071633e-21
2.925342023e-21
2.104890688e-22
1.211393171e-22
1.934396051e-20
1.322024044e-20
3.710243914e-21
1.407560292e-21
2.656309259e-21
1.388365442e-22
4.181390774e-22
4.177501762e-21
2.451309716e-21
3.794676231e-21
2.125985299e-21
1.021718653e-20
1.84135828e-20
8.530806056e-22
2.574211298e-21
5.254537596e-22
9.587991833e-21
2.535247819e-21
4.537654045e-21
1.952318396e-21
4.226235019e-21
8.780758922e-21
2.92349663e-21
2.630557403e-21
8.279227284e-21
2.649043632e-22
5.134233569e-21
3.98135183e-21
7.924027086e-21
1.571802807e-21
1.168790525e-21
2.288912903e-21
7.787416363e-21
2.28815946e-21
3.073156775e-21
3.230660292e-22
3.224408762e-21
1.35400689e-20
7.312852733e-22
2.348492838e-22
1.267284969e-21
5.997587143e-21
1.928455943e-21
1.805439094e-21
3.806243576e-21
8.581026639e-21
4.14781716e-21
5.723070438e-21
3.792204877e-21
1.182847281e-21
5.456964091e-21
3.573085572e-22
1.617034461e-22
6.561577868e-22
1.278396837e-21
1.501442805e-22
6.806183174e-21
4.118768444e-22
6.667945758e-21
5.091405473e-21
1.54197007e-21
1.564717046e-20
6.246012529e-21
2.236605388e-21
5.662561197e-21
7.065165717e-23
6.06183359e-21
8.966066415e-21
1.490221454e-21
3.842818081e-22
6.040811453e-21
1.177271297e-20
3.937670649e-22
4.204353544e-21
2.506568161e-21
4.155611076e-21
1.675963388e-21
2.968527341e-21
1.077119735e-21
3.830402187e-21
6.609137978e-22
8.493358142e-21
4.873342699e-21
3.350314325e-21
8.262974494e-23
2.163546534e-21
4.525153132e-21
1.580981899e-21
5.058316751e-21
2.047080902e-21
3.537442458e-22
2.098022037e-21
2.587877515e-21
1.890069038e-21
8.771850385e-22
4.354357291e-21
1.262240602e-20
1.757594927e-21
7.653778021e-21
4.386898654e-21
3.350509271e-21
1.092751592e-20
1.06106754e-21
4.428902445e-21
9.511523551e-21
1.17292206e-20
1.256316927e-20
1.353735893e-21
1.343055259e-22
4.462495372e-21
1.091533913e-21
1.469198151e-21
1.601893899e-21
5.694373432e-21
7.78316567e-21
5.171126989e-21
2.018398641e-21
1.420904263e-22
9.586702172e-21
9.032286853e-21
2.039902815e-20
2.118594907e-23
3.601523586e-21
6.583866073e-21
6.033434939e-21
5.016250743e-21
5.528501024e-21
2.115389769e-21
3.085802388e-21
1.799262327e-21
1.078023831e-20
1.202803366e-21
8.212454842e-22
1.283818285e-21
9.652779906e-21
1.403385454e-21
8.428707018e-22
1.480597891e-23
5.436048553e-21
6.569091046e-22
1.786135113e-21
1.553999521e-20
3.497761159e-21
1.103788882e-20
3.27568883e-21
1.462522291e-20
3.892992737e-22
2.620271372e-21
1.143401898e-20
5.18819456e-21
1.107282066e-21
1.759134282e-22
1.047892184e-21
2.290778614e-22
2.571030264e-21
7.36892093e-23
8.462674982e-21
2.895571196e-21
3.249069346e-21
2.740022623e-21
4.152230271e-21
3.000420544e-22
8.298124469e-22
5.095528752e-21
2.560803068e-21
2.027881911e-21
1.032851857e-20
6.135333954e-22
9.682557522e-22
4.434121269e-21
1.521437783e-20
1.582724967e-20
3.314300559e-21
6.074656808e-21
1.243554795e-20
4.996567309e-21
1.127393512e-21
2.090366651e-21
7.752255572e-21
1.646410888e-22
1.394981911e-20
7.538898095e-22
2.121856098e-21
2.820202323e-21
7.379725921e-21
3.78817395e-21
4.946639027e-21
3.367373242e-21
4.236315158e-21
7.712811478e-21
1.773354279e-21
5.650890909e-21
5.958333908e-21
6.418364681e-23
7.39491196e-21
1.588275453e-21
1.633088937e-21
2.891075684e-21
3.449354723e-22
6.433125493e-21
7.403347853e-21
1.469368446e-20
8.770840631e-22
8.64228056e-23
1.050116775e-20
1.51446716e-21
1.806602333e-21
1.700085895e-22
5.703771141e-21
7.829214526e-21
5.094459058e-21
4.277300929e-21
2.187109943e-21
3.026234608e-21
6.444847895e-21
1.645664816e-21
1.496077545e-20
3.713672088e-21
4.054638337e-21
3.396587809e-21
3.120518296e-21
7.775451881e-21
1.822323628e-21
1.601696272e-20
5.489345224e-21
3.428095899e-22
5.02622954e-21
3.856784625e-21
2.18870186e-22
3.503653713e-21
4.958985767e-21
2.8578773e-22
1.494548066e-21
1.097503258e-21
6.794750848e-21
8.534503688e-22
6.787198016e-22
1.764482114e-21
9.878239334e-21
6.113034947e-22
4.361234984e-21
7.903344129e-21
4.17323494e-21
6.527310219e-21
2.018776053e-21
1.479152514e-21
2.430830681e-22
2.423544508e-21
1.644072291e-22
7.062533732e-21
3.600599797e-21
1.462200228e-21
2.218092843e-21
2.573406227e-21
9.774478707e-22
6.298178568e-21
3.822003499e-22
7.632769517e-22
6.194701531e-22
6.842515779e-21
2.517417462e-20
1.104591596e-21
8.077287523e-21
9.608496229e-22
8.960768804e-21
4.989680984e-21
3.969337502e-21
3.224409492e-21
4.972761947e-23
1.712481536e-23
4.940368097e-21
1.807818548e-21
4.231867934e-21
1.86571556e-22
6.960185167e-21
3.004902658e-21
8.071176086e-21
4.548753282e-21
6.07459667e-21
1.643227642e-21
3.483717954e-21
1.448961904e-20
2.149993489e-21
3.546676945e-21
2.695900307e-21
3.572522201e-22
4.411892403e-21
5.09591657e-22
1.956227668e-21
1.812908684e-21
5.500770957e-22
4.43234418e-21
3.472293813e-21
4.478636881e-21
8.224326687e-21
2.942362554e-21
2.278389216e-21
1.78813671e-21
1.239421401e-20
1.291804015e-21
3.526476834e-21
1.304261251e-20
4.71349256e-21
4.196252449e-21
1.80380576e-21
3.565272563e-21
7.88348501e-22
1.876081381e-21
1.423520858e-21
3.829879172e-21
1.9221965e-21
2.088000148e-21
9.512524489e-21
1.430574142e-21
2.059546529e-21
3.472889389e-21
6.593829793e-21
8.978818446e-21
1.911596151e-21
7.97689914e-21
5.788719515e-21
3.74056825e-22
7.340548412e-21
2.523613564e-21
1.318636919e-20
1.067102612e-20
4.403493764e-21
7.809807505e-22
4.033009659e-22
9.059187481e-22
3.108628038e-21
1.448530727e-21
1.410363731e-21
1.925159782e-21
5.022100296e-21
2.989983535e-21
3.297135691e-21
9.497575374e-22
9.219885938e-21
5.369615589e-24
2.239707174e-21
2.344093082e-22
1.412245754e-21
2.468867176e-21
6.246151169e-22
4.171160298e-21
8.495142934e-21
1.42159411e-22
7.581687203e-22
5.348031741e-21
2.575760414e-21
3.5235945e-21
9.960555036e-21
6.671880314e-21
1.204303619e-21
3.113099727e-21
2.610590746e-21
5.28181176e-22
2.252064144e-21
3.158989315e-22
7.064775008e-21
6.351517653e-21
1.943785829e-21
1.860178463e-21
3.552724365e-21
8.285273301e-22
1.356060606e-20
7.732183044e-22
8.831323892e-22
2.591259009e-21
1.837547913e-22
6.189662091e-22
1.325497462e-20
1.728321089e-21
7.099110632e-21
1.612443198e-21
1.933827351e-21
4.569907979e-21
6.634868034e-21
6.298533691e-21
2.138920825e-21
4.226755119e-21
9.605295646e-21
3.731254569e-21
6.397214404e-21
4.710720553e-21
1.258479178e-21
4.428746106e-21
8.181219292e-21
4.347516774e-21
5.95370493e-21
7.720927235e-22
5.992766761e-22
5.455477709e-22
7.848130199e-22
3.168317401e-21
4.130936426e-22
8.742857833e-22
1.277791413e-21
4.835986698e-21
1.488463798e-21
3.277192859e-21
7.090964171e-22
2.900921213e-21
3.07891097e-21
2.656430852e-21
9.004446272e-22
1.441170918e-21
2.350364291e-21
3.920617079e-21
2.156427064e-21
3.198616713e-21
4.831562532e-21
1.985032012e-20
1.404595025e-21
3.07793244e-22
3.642917664e-21
4.01028657e-22
7.359125607e-21
2.101509127e-20
2.704039589e-21
6.131131347e-21
3.138504604e-21
4.744353829e-21
1.622414098e-21
7.057874297e-22
6.703375813e-21
3.159870012e-23
3.500238316e-22
9.915434912e-21
8.940853525e-21
1.516784812e-20
3.934525497e-21
7.374613795e-24
8.710873547e-21
6.585313636e-21
4.401362786e-21
1.227261382e-20
3.684291841e-22
5.963498998e-21
4.630583916e-21
5.206781417e-22
7.880535107e-21
2.414948849e-21
6.130943298e-21
5.829670879e-21
2.635536119e-22
6.55484601e-22
2.064611112e-21
3.232765276e-21
3.409960161e-21
1.014223057e-21
3.91170553e-22
6.827883074e-22
1.703898984e-20
3.726790552e-22
2.959502747e-21
7.679346217e-23
2.740503245e-22
1.072764893e-21
1.479355012e-20
1.50002489e-21
1.611924434e-20
9.688353101e-22
7.841066597e-21
1.795879565e-21
3.052827505e-21
1.599355507e-21
1.022048917e-20
1.209913452e-21
4.091923101e-21
6.749565569e-21
2.075338738e-20
2.311407116e-21
6.789247813e-22
1.26477633e-20
1.61765849e-21
8.255562275e-23
6.458165401e-22
1.719565765e-21
6.412039669e-21
2.860949196e-21
4.956103584e-21
1.161613592e-20
5.938099255e-21
2.608712866e-22
5.564664354e-22
2.672534631e-21
8.728663872e-21
7.680383247e-22
1.191081827e-21
2.063514681e-21
7.117120247e-22
1.663544405e-21
4.065149556e-21
3.336441101e-21
1.07589518e-21
6.240251012e-23
3.419830649e-21
2.270253658e-20
3.198386007e-21
5.121330868e-22
4.424356994e-21
8.371720233e-21
3.208748845e-22
2.745685839e-21
2.170132639e-21
1.148448333e-21
2.264589096e-21
8.510412817e-21
8.533993199e-22
8.094639545e-22
1.149168594e-21
2.946022625e-21
7.17654003e-22
2.488644145e-21
9.923953516e-21
1.386525679e-21
3.167461946e-21
6.297756028e-22
1.4173727e-21
2.241514552e-21
5.526815517e-21
3.597682139e-21
5.738489692e-22
7.75953574e-22
1.889332124e-21
9.153835613e-21
1.329380591e-21
7.727616249e-21
3.227772232e-21
1.085812956e-21
2.450124486e-21
5.336630765e-21
8.281073454e-21
1.431103987e-21
6.504839506e-22
1.425353805e-21
5.581844011e-21
1.704600722e-21
2.300674193e-21
1.123743305e-20
1.152518561e-21
4.149677951e-21
7.145867499e-21
2.559538597e-21
1.052528422e-20
4.501367655e-21
6.325170665e-22
2.214561511e-21
1.534861335e-20
1.217501412e-21
4.186743377e-21
8.497301333e-22
1.566944928e-20
8.556953702e-21
3.219628628e-21
1.484944647e-21
5.83277298e-21
7.964153555e-21
4.905951653e-21
3.131289793e-21
3.002545433e-21
4.658760254e-21
1.293262669e-21
1.926036391e-21
6.046003066e-21
7.63571197e-22
4.903755939e-21
1.512334603e-21
1.44952651e-21
8.826237592e-21
6.869814819e-22
5.600388462e-21
1.04326968e-20
4.520500612e-22
1.328011611e-21
4.647236961e-21
1.598032017e-22
1.339180088e-21
6.170617476e-22
2.122976285e-20
9.593397257e-22
4.546644418e-22
7.250864488e-23
3.980927379e-22
1.021600491e-20
8.768347353e-21
7.289672456e-21
3.005407545e-21
2.958412817e-21
4.421099315e-21
4.943029025e-21
3.474659276e-21
8.13727219e-21
5.634136654e-21
1.619852895e-21
9.858784729e-21
5.645636094e-21
6.073431666e-22
4.577375739e-23
3.340512301e-21
1.211344862e-22
2.724982703e-22
1.230416247e-21
1.487894733e-21
5.520471283e-21
2.363671002e-21
5.224544715e-21
5.22401321e-22
3.302395863e-21
3.565858805e-21
8.283317613e-22
4.85307602e-21
1.891895202e-21
2.591770253e-22
3.419950019e-21
1.598665184e-21
3.46843045e-21
1.953564612e-22
2.821592615e-23
2.900239924e-21
2.440187203e-21
4.030190948e-21
1.378977137e-20
6.562937499e-22
1.134320462e-20
2.170416994e-20
7.439795246e-21
3.176070794e-22
8.209359626e-22
3.064616968e-21
3.062099024e-21
1.16458708e-21
2.185149588e-21
5.820833124e-21
7.026449207e-21
1.443773096e-21
5.479769814e-21
4.020322004e-21
6.533292492e-22
5.303119977e-21
1.696371389e-21
2.399485707e-21
1.348207366e-20
1.993053693e-21
2.648875745e-21
5.731382698e-21
2.938436808e-21
1.092521364e-22
5.520663644e-21
2.011890558e-20
7.661315209e-22
2.279446249e-21
7.881894436e-21
4.028704486e-21
2.062665834e-21
7.765950443e-21
4.175129801e-23
1.152250386e-20
3.565584458e-21
6.045985943e-21
3.299564003e-21
5.928283271e-21
1.921046096e-21
1.267256541e-20
4.797779566e-21
4.428001615e-22
4.937309684e-21
4.270040917e-21
1.879470375e-21
4.523749992e-21
1.520218341e-22
1.711942598e-21
5.961446774e-21
9.037645209e-22
9.939819709e-22
9.844715763e-21
6.85236736e-22
5.06593135e-21
1.662963416e-21
5.285889253e-21
7.595187112e-22
7.46929469e-24
6.312696134e-22
3.658720028e-21
1.502667373e-21
1.064052736e-21
6.616537968e-21
2.838660061e-22
7.586750791e-21
8.856032184e-22
1.578865706e-22
7.881298473e-22
1.031307164e-20
6.111336459e-23
5.195920661e-21
3.771217545e-21
8.454856452e-21
7.911941205e-21
1.014202912e-20
1.336512297e-21
1.231113132e-21
2.971566824e-21
2.054000924e-22
8.165484219e-21
7.571084688e-22
2.699933448e-21
6.214934336e-21
7.890170413e-22
1.290721971e-21
1.025223581e-21
2.252292785e-21
1.764581023e-21
6.59469922e-21
4.503245166e-21
8.004335873e-23
1.484586151e-21
2.096293491e-20
6.616476827e-21
1.525296557e-21
4.903399977e-21
2.306173676e-21
4.690620974e-21
5.502572429e-21
7.638701693e-22
1.284041657e-21
1.874426018e-22
2.926470315e-21
6.935461338e-21
2.914516282e-21
7.362215245e-21
3.729509821e-21
3.416467481e-21
5.622320746e-22
2.692312178e-22
2.690031211e-21
1.573483277e-20
1.249445459e-21
2.634658325e-21
7.457700028e-21
3.347147163e-21
3.183067681e-21
3.415922282e-21
2.106709082e-21
7.574964739e-22
5.773495599e-22
1.885517058e-21
2.355332697e-21
1.259669956e-20
1.879264459e-21
5.242819986e-21
3.330203825e-21
1.492231419e-21
4.945604145e-22
1.516913384e-21
6.099747684e-21
4.07752748e-21
1.587144564e-21
6.662495486e-21
5.473724886e-21
6.181537463e-21
6.032010842e-21
3.134204384e-21
5.919800717e-21
1.038334308e-21
1.037955428e-21
3.078760825e-21
9.557040167e-22
1.457084024e-21
2.891228712e-21
5.75627143e-21
2.19318976e-21
1.709766818e-21
8.035777718e-21
6.357234746e-21
7.873196722e-21
7.941380865e-21
1.573349981e-21
7.590506178e-22
1.411395403e-20
1.168941081e-20
6.857194961e-22
1.068569771e-21
1.733198461e-22
4.616461647e-21
1.204512924e-20
5.62084268e-23
5.257408335e-21
7.302316812e-23
1.663542676e-20
6.245952167e-22
1.35155479e-21
1.385345248e-21
2.658322945e-21
9.063372464e-23
3.282648641e-21
4.32970123e-21
1.66424432e-21
9.52984134e-21
4.952937172e-22
4.588050257e-22
5.587711004e-22
4.05544504e-21
4.138510607e-21
2.615497766e-21
5.692074762e-21
5.296895496e-21
7.307994644e-21
4.477296918e-22
6.541852528e-21
5.531515835e-22
1.882722741e-21
2.275972739e-21
5.202111974e-21
2.297296674e-21
5.25463519e-22
6.505589884e-22
8.137206955e-21
2.190407537e-20
1.691129462e-21
3.771760891e-21
9.916418516e-22
1.339834085e-23
2.263549161e-22
3.992894087e-21
4.060579912e-21
1.917307425e-21
6.86432774e-22
1.243227761e-21
1.490733062e-21
3.153385474e-22
4.659988339e-21
3.593028511e-21
9.502591403e-23
4.177809475e-21
1.372193836e-21
2.128697753e-21
1.309166355e-21
5.804689572e-21
1.233978456e-21
4.325900431e-21
3.460718757e-21
9.693156189e-22
1.267076104e-23
9.410648418e-22
1.422948057e-20
1.371563398e-21
1.433641998e-21
6.147117006e-21
3.636234873e-21
6.125444002e-21
1.214340247e-21
1.518983388e-20
1.088299275e-21
5.273927212e-22
2.721303981e-21
1.830436683e-21
2.178301692e-22
3.046246812e-21
3.682807029e-21
6.096462337e-24
1.026134943e-21
6.459132956e-21
8.255244554e-22
7.535205519e-22
6.437785548e-21
5.256352459e-21
1.697745616e-22
1.945885501e-21
1.140129991e-20
2.715855466e-22
1.300611547e-20
3.444645024e-21
4.025278032e-22
8.865083671e-21
3.394960814e-21
7.205023569e-21
4.934322448e-21
3.488793516e-22
8.212632196e-21
1.867684995e-21
1.110491861e-20
8.288811165e-21
8.578454646e-21
3.207281429e-21
2.045209267e-21
1.910764092e-20
1.871084654e-22
1.009090076e-20
2.726864507e-21
4.41565102e-21
2.534830173e-22
7.698355453e-21
2.902918965e-21
1.560718221e-21
6.174875296e-21
1.678601518e-21
6.792901579e-22
3.566890483e-21
6.718634781e-21
1.460159593e-20
4.951630684e-22
2.221486713e-22
5.73903812e-21
4.731834978e-21
2.348409376e-21
7.582131986e-23
7.476020092e-21
3.468228174e-21
1.449247891e-20
4.028545082e-21
1.984301816e-21
3.291982632e-21
4.064394257e-21
6.212881153e-22
7.057525784e-21
7.549732376e-21
2.859603682e-21
5.42436071e-21
2.042523282e-21
1.672313076e-21
2.49489195e-21
1.785025798e-23
1.186949571e-20
1.861408772e-21
7.063965616e-21
4.868985049e-21
5.732467338e-21
2.020470009e-21
1.293501875e-20
7.742939821e-22
5.339696928e-22
7.243009536e-21
5.094676903e-21
1.082756861e-20
1.317191869e-22
5.29952752e-21
3.788360442e-21
5.532571443e-21
5.320714046e-21
4.087202828e-22
4.934149106e-21
5.48442087e-21
8.766216334e-21
7.539174854e-21
2.970112154e-21
9.787715762e-22
5.329496927e-21
2.448701695e-21
1.247740364e-21
2.484371956e-21
2.814424248e-21
1.039455088e-21
6.097211798e-21
1.032776268e-21
1.002972963e-20
1.192070188e-21
2.994082491e-21
5.855129935e-21
2.17749114e-21
8.146660479e-21
1.178908622e-20
2.759796085e-22
1.05554147e-21
1.05977608e-20
6.480281094e-21
1.970575939e-21
8.455577493e-21
8.08557441e-21
7.630210459e-21
1.596637438e-22
2.29992739e-21
1.184666704e-20
8.044040349e-22
3.388348571e-22
2.247671375e-21
3.446555572e-21
1.422404544e-21
2.545635939e-22
2.004046095e-21
7.629083953e-21
2.82762771e-21
9.523126541e-22
2.515894428e-21
2.363373504e-21
1.320385512e-21
1.895070749e-21
5.060372732e-22
1.978659382e-21
2.959826838e-21
6.341774093e-21
4.268427654e-21
5.922126916e-21
5.642359966e-21
4.684424615e-21
2.80097946e-21
2.44802878e-21
1.538499078e-20
1.412414326e-21
1.966326018e-21
3.866307571e-21
6.799484564e-21
7.148327968e-22
2.02214266e-21
4.611813972e-21
8.332713529e-22
3.812255948e-21
5.435870765e-21
6.991309009e-22