/*--------------------------------*- C++ -*----------------------------------*\
| =========                 |                                                 |
| \\      /  F ield         | OpenFOAM: The Open Source CFD Toolbox           |
|  \\    /   O peration     | Version:  2.4.0-MNF                             |
|   \\  /    A nd           | Web:      www.OpenFOAM.org                      |
|    \\/     M anipulation  |                                                 |
\*---------------------------------------------------------------------------*/
FoamFile
{
    version     2.0;
    format      ascii;
    class       Cloud<dsmcParcel>;
    location    "0.0007/lagrangian/dsmc";
    object      positions;
}
// * * * * * * * * * * * * * * * * * * * * * * * * * * * * * * * * * * * * * //

64126
(
(0.01336592143 -0.008600663452 -0.03319072448) 452
(-0.02870652888 -0.002334602272 0.03482436429) 4624
(-0.02289405509 0.02832601477 0.0327669023) 4745
(-0.03941632781 0.004502468333 0.03366984526) 4642
(0.01428357016 -0.001135287452 -0.03936048407) 152
(-0.006292504724 0.03295791749 0.01155351298) 3488
(-0.002917087058 0.03924802049 -0.01128048743) 1909
(0.006965109888 -0.0358184354 0.02315831865) 3851
(0.01181308729 -0.01403028674 -0.01119096272) 1712
(0.04332974996 -0.006848724848 0.02379295425) 3978
(-0.01689612142 -0.03929507649 -0.03913564367) 6
(0.02064087559 -0.01552730593 0.02456955373) 3934
(-0.0386185371 0.03853144195 -0.02389522924) 1262
(0.03452163259 0.02124669667 -0.01981159817) 1536
(0.04715554314 0.01056835045 0.03149188366) 4699
(0.04706440351 -0.02717059917 -0.01272821742) 1659
(0.04412210016 -0.01903510949 0.00222988088) 2658
(0.04838895879 -0.009146333428 0.005442418538) 3019
(0.02992723698 0.03205661976 0.03513356139) 5095
(-0.02561393647 0.02464877923 0.03941887235) 5044
(-0.04803573723 0.01589982659 -0.009310168377) 2140
(0.01574927785 0.01350827109 -0.01006760044) 1813
(0.03966720107 -0.002699417284 -0.01665145794) 1437
(0.02532536796 -0.002865515602 -0.02932084626) 795
(-0.0180593053 -0.03035345553 0.03932498625) 4826
(0.03296939251 -0.0005786517322 -0.001002171987) 2396
(-0.03557954374 -0.02353019187 -0.02549618914) 702
(-0.00868420998 0.03555721883 0.01293303061) 3508
(0.02798421179 0.01352048751 0.02798796001) 4375
(-0.03055825167 0.03933499548 -0.03999429548) 303
(0.03023716837 0.0264475108 0.002335842936) 2836
(0.03826025968 -0.008373369689 -0.001969680375) 2377
(-0.012801423 0.002308027201 -0.0179105716) 1447
(-0.03817826585 -0.003791691241 0.006360303423) 3022
(-0.04678174615 -0.0349972572 -0.02947786004) 660
(0.03561282417 -0.03146788999 -0.01888504829) 1317
(-0.04038358758 0.0232742305 0.01224085821) 3441
(0.008402421025 -0.00756676272 -0.03071150543) 451
(-0.04796515366 0.01507396714 -0.0192366079) 1500
(0.0468484952 0.01781865113 0.01882502816) 3759
(0.007519857536 0.0356627211 0.002505421983) 2871
(-0.03935345056 0.009705276871 0.03389764383) 4662
(0.04889693077 0.03468446944 0.01620802455) 3819
(-0.04359839196 0.01566718526 -0.001740836197) 2461
(0.002800160366 0.02951210543 -0.002448645905) 2510
(-0.03042132363 0.0170119552 0.008025586976) 3103
(0.03818729635 -0.02741979906 -0.01157861434) 1657
(-0.01220891013 0.03916035207 0.03396428154) 4787
(0.03534797262 -0.03947420601 -0.0332705843) 337
(0.03576894643 -0.03706345212 0.00290295772) 2577
(0.04140754553 -0.02207310761 0.03032558885) 4558
(0.02082871522 0.007768980815 0.01481478596) 3394
(-0.01415676409 0.005432569393 0.002858452355) 2747
(0.0267949822 -0.0297148503 -0.02735782186) 695
(0.02173928466 -0.001751836714 0.03795528514) 4954
(-0.03061013454 -0.03524380458 0.009459956649) 2883
(0.03636680113 -0.0360084089 0.01012067258) 3217
(0.00794255514 -0.0112029387 0.01770470829) 3631
(0.006372351457 -0.03692771124 0.03727432995) 4811
(-0.0056627924 -0.01560658364 -0.002490813188) 2328
(-0.008469159804 -0.008305203914 -0.005599287505) 2048
(0.03963308562 0.002405533448 0.002037084042) 2737
(-0.01447547652 -0.01333665762 -0.02020899071) 1067
(0.04143695363 -0.03569330047 -0.03793398707) 18
(0.03513576208 -0.01482472784 -0.01608397919) 1397
(-0.01233880842 -0.03120517753 -0.02518016019) 667
(-0.001133848172 -0.00353039936 0.01900481621) 3669
(-0.03891884244 -0.03369015181 0.01436451919) 3222
(0.02970081642 -0.01011206488 0.008408002907) 2995
(0.03712487585 -0.00993476655 0.02824056417) 4297
(0.02942663571 -0.007504197271 -0.02320122434) 1095
(-0.01409856958 -0.02361046774 -0.006956815131) 1987
(0.02566308111 0.03291111091 -0.004070421919) 2535
(0.02132778977 -0.02999552326 0.004497690022) 2614
(-0.02339550352 0.01981609569 0.03556213936) 5025
(0.04799860469 -0.00223947547 0.03111877133) 4639
(0.02974840153 -0.003285435995 -0.03889132716) 155
(0.03897135615 0.01081442998 0.007140017145) 3097
(0.01731196602 -0.005818083726 0.007459688781) 3013
(-0.03293330624 -0.02554327644 -0.01514658426) 1323
(-0.03758700149 0.01105496305 0.02936012523) 4362
(-0.04895655849 -0.003175761827 -0.02364432504) 1100
(0.00118205812 0.02015335542 -0.009486365554) 2170
(-0.02548606836 -0.03348648282 0.009440003903) 2904
(-0.02143113014 0.001636201197 0.002757980688) 2725
(-0.04648546692 -0.03931962726 -0.01560134624) 1280
(0.001211199327 0.01430027538 0.003361261093) 2770
(-0.03913566526 0.007435371996 -0.0333119688) 502
(-0.009702383574 -0.03983722025 0.01275218612) 3208
(-0.006485768479 0.0007100428909 -0.0006045392839) 2408
(-0.01027933486 -0.03125878103 -0.02806859989) 667
(0.02189396146 -0.03292289048 -0.02717354036) 674
(-0.01088708503 -0.0009139319418 0.01869039401) 3667
(-0.01161288756 0.02286510354 0.03213604263) 4727
(0.03788832269 -0.02979292279 0.01393686696) 3257
(0.04921260972 -0.004706412066 -0.03531960126) 159
(-0.003132094889 -0.01390165828 0.0001274335807) 2669
(-0.04879404054 -0.005361858685 -0.02099500918) 1080
(0.0003816423462 0.02028916404 -0.03777241633) 250
(-0.01480272779 -0.03743916813 0.008463802246) 2887
(-0.01907196332 0.02874870007 -0.02445599744) 1226
(-0.02038149862 -0.03386301771 -0.02236968635) 985
(-0.01065504378 -0.01830905229 0.002635351384) 2647
(0.01216241699 0.02898182419 0.0193899734) 3792
(0.0009018318689 -0.03199217303 0.03977079763) 4830
(0.01458121061 0.01637557813 -0.02650131428) 872
(0.02519938639 0.007997643774 0.002975677228) 2755
(0.04072243069 0.01504469495 -0.03368981638) 558
(-0.03410092555 0.0388704658 0.03403128731) 4783
(0.04822304075 -0.003823285418 -0.009159340982) 2079
(0.03375467398 0.031089097 0.03421773691) 4776
(-0.005179873616 -0.01790361194 0.03812589082) 4888
(0.01415638073 0.01112220342 0.03089581906) 4692
(0.03189352698 0.01717568426 0.007572046145) 3116
(-0.03313707447 0.0275351714 0.006376638327) 3143
(-0.001255939722 -0.01075353367 0.01296722367) 3309
(-0.01265982533 -0.02015927094 0.01469531707) 3267
(-0.01013470096 -0.03861998901 -0.03705084134) 7
(0.04916631006 -0.01280159853 -0.02262419058) 1079
(0.007828995352 -0.0299138098 0.01101173729) 3251
(0.01472050206 0.03134591289 -0.02891521426) 932
(-0.02312332783 -0.03060695125 0.007429184369) 2905
(-0.005742687766 0.007578460064 0.0001267778779) 2748
(0.01935729734 -0.01557723304 0.01429839812) 3293
(-0.005608428599 0.007839219292 0.01771141782) 3708
(-0.0007236226926 0.03565323688 -0.01573519911) 1589
(0.03979808473 0.0125186255 -0.01999877976) 1497
(0.01694616598 -0.01546978335 0.004161506705) 2653
(0.04526304352 0.004419105513 0.005722117789) 3059
(-0.02368027728 0.0115887541 0.03070546801) 4685
(-0.03726504222 -0.0036969135 0.006344269839) 3022
(0.03733435614 0.03915781828 -0.03300848497) 637
(0.03318843136 0.02291133373 0.01974180663) 3776
(0.008904939824 -0.009115057294 -0.02332056664) 1091
(-0.01840121215 0.01920271946 0.02541527095) 4386
(0.03674943531 0.007097404562 0.01833603328) 3717
(-0.03038960459 0.03044709655 0.03240245353) 4763
(-0.03695434642 0.01429632138 0.03267496044) 4682
(-0.02172419293 0.01703887046 -0.02806747737) 865
(0.04247738551 -0.02906976629 0.03984337439) 4858
(0.01721553607 0.01287078499 -0.02075555718) 1173
(-0.04755102707 0.007334271816 -0.001022339218) 2420
(0.01756036122 0.01219479451 -0.03498183246) 533
(-0.02979296349 0.02901692598 -0.01877530371) 1544
(0.01241116886 0.03829336981 0.02998435837) 4472
(0.03266378278 -0.02558143176 -0.01026991564) 1656
(-0.03979175851 0.03473878668 0.03281787554) 4762
(0.04975332258 0.03981267015 0.03584210388) 5119
(0.04987078351 0.01973823335 0.01114360445) 3439
(-0.03830204054 0.01222927852 0.02129993546) 4042
(0.02350616525 -0.01124058279 0.02227398837) 3954
(-0.02734501322 0.0003978693777 -0.02180738758) 1124
(-0.01753653612 0.02508869286 0.01329290763) 3466
(0.003464750572 0.008045323924 -0.03618732414) 190
(-0.002356941877 0.02127889193 0.009420136309) 3129
(0.04059691444 -0.02608217637 0.03532749404) 4858
(-0.03089853841 0.0112555358 -0.03000015645) 523
(0.001944973146 0.01045572491 -0.03480070797) 530
(0.03414969389 0.02954004977 -0.03822139018) 276
(0.03411679596 -0.01494461949 -0.03774001578) 116
(0.006642800123 -0.03033588271 -0.003583964118) 2271
(-0.007630553643 0.03114379858 -0.0004760798181) 2528
(-0.0151525743 -0.0379660371 -0.0007355947478) 2246
(0.02216295228 0.03345441716 0.03984527096) 5094
(-0.01800694615 0.038076656 0.02267924759) 4146
(0.04731379708 0.02575967032 -0.01670058558) 1559
(0.02594552236 -0.02959388308 -0.02669223499) 695
(0.04623101905 -0.02136202422 -0.01551929696) 1359
(0.005110326281 0.03944070364 0.0003935020182) 2871
(0.03702231406 -0.03766161229 -0.03459400193) 337
(-0.04269601029 -0.01462105733 -0.005579997231) 2021
(0.02802159306 -0.03533952237 -0.03175677763) 335
(0.01579061131 -0.01154349106 -0.0340179775) 433
(-0.01415879786 0.00218361986 0.0284097153) 4327
(-0.04750912138 0.009226127711 0.01837166352) 3700
(0.02932099169 0.01089527431 -0.02823462588) 855
(-0.003578303287 0.0210249698 0.03378080258) 4729
(0.0400087958 -0.02178518024 0.01378273244) 3278
(-0.03117836584 -0.02606504847 -0.01050629675) 1643
(0.04655236442 0.02566981932 0.007395446917) 3159
(0.0381072202 0.01840715726 0.0203942987) 4077
(-0.04101227193 0.034542275 0.03739029174) 5081
(0.01849328494 -0.003539671489 0.01948834602) 3673
(-0.03999409547 -0.006172389881 -0.01595773215) 1402
(0.01706381419 -0.01962421007 0.02762205959) 4253
(-0.02995719442 0.03299301801 -0.02252384533) 1244
(-0.01151860625 0.01117907626 0.03351026971) 4687
(0.04697419466 -0.01953924951 0.0206723559) 3939
(0.001732157777 0.01658112098 -0.02264460164) 1190
(0.002623028486 -0.02030314306 0.02684805928) 4230
(0.03536727467 -0.02006828821 0.00236587047) 2637
(-0.04204923189 0.0003104718048 0.03329495095) 4641
(0.002102179606 -0.02177393736 -0.02883599443) 710
(-0.02168825221 0.01039010001 -0.008185898789) 2125
(-0.0247287048 0.02526051005 0.00704518082) 3145
(-0.01941132495 0.02483931565 0.01187695901) 3446
(0.03487905822 -0.02028926932 -0.02240317114) 1036
(0.009992601087 -0.01736900481 0.0009869703941) 2651
(0.006925614628 0.01840260122 0.01002437779) 3431
(0.004281215908 0.02727011311 0.01035802406) 3470
(0.03017188337 0.01336331293 -0.02538656999) 856
(-0.007313061178 0.01311460866 -0.02835158676) 848
(-0.016937922 0.03763996899 -0.01850537215) 1586
(0.04087310963 0.03728282679 0.03612212384) 5118
(0.02251153125 0.004298542691 0.02379689115) 4014
(0.02333695348 -0.01510087703 0.03359514651) 4574
(-0.04689966896 -0.03212038487 -0.02494741491) 980
(0.01179620856 -0.02931723516 -0.01122692695) 1652
(0.004918563062 0.01416603279 0.03094321214) 4690
(-0.03929823538 0.01421069758 -0.03767618173) 202
(-0.03105361228 -0.02260953729 0.03888606431) 4863
(0.01713731966 -0.02631704911 0.02580389354) 4213
(0.04972357415 0.01928822382 -0.01912494832) 1519
(-0.009777020483 -0.01040513572 0.01568864127) 3628
(-0.02968222807 0.03223395849 -0.009385832341) 2204
(0.04084214587 -0.0323702723 -0.003388568059) 2278
(0.04782651925 0.0353888322 0.03973372203) 5119
(0.02754409254 0.0219918575 -0.004086361065) 2495
(0.02620758165 -0.02372993335 0.01881253504) 3595
(-0.021144832 -0.001108492882 -0.02971089378) 785
(-0.01087237652 -0.01865285805 -0.002196964243) 2327
(-0.008981368917 -0.02675907834 0.0260883747) 4208
(0.03151994253 -0.002422685333 0.01794098697) 3676
(0.04944622844 0.03400294559 0.03380059313) 4779
(-0.02245724564 0.02022214821 -0.01416892522) 1845
(0.02002412606 -0.01038483295 0.006605439148) 2994
(0.003886758892 0.005663471102 -0.02595259093) 830
(0.04704970373 -0.03033725566 -0.03827927523) 39
(-0.03119284459 -0.0208771021 -0.03769033918) 63
(-0.0495687149 0.02154796344 -0.008831244239) 2160
(0.04852832491 -0.001038236235 -0.03647644715) 159
(0.02926966462 0.02050419778 0.0381204342) 5055
(0.01291339081 -0.01202670097 0.01906605664) 3632
(0.02342422334 0.0002446730425 0.02533935758) 4334
(-0.01314553446 -0.002874734242 0.005277944085) 3027
(0.005036726638 -0.03658654052 0.03662077207) 4811
(-0.02336850357 -0.003499211196 0.03320208096) 4625
(0.02783361821 0.009947627846 -0.006784194155) 2115
(0.02177192032 -0.01865724378 -0.005360120824) 2014
(0.02510267108 -0.02755992172 -0.03495248235) 375
(0.008978489882 0.01071312335 0.010794231) 3411
(0.009315864328 -0.03098223884 0.03103169853) 4511
(-0.03448501286 0.005713823511 0.03936662669) 4983
(0.02214815234 0.02385151021 -0.01362528301) 1854
(-0.007010851953 0.01848698518 0.03299969067) 4708
(-0.01470075873 0.01897579493 0.02348842299) 4067
(-0.009436348476 -0.01037610406 0.03536243689) 4908
(-0.004810910583 0.0006679334553 0.01558154635) 3689
(0.03830888655 0.01155141263 0.01502260361) 3737
(-0.00171379084 -0.004421566816 0.03417028503) 4629
(-0.01595543044 -0.01673010021 -0.03729526691) 86
(-0.04914642263 -0.00434544523 0.004638071091) 2700
(0.003834825918 -0.03331110499 -0.02681128037) 670
(-0.02231599611 -0.03984517885 0.02688060096) 4165
(0.01946134161 -0.03067036182 -0.006295773618) 1953
(0.02986330971 0.02283143068 0.01859204077) 3775
(-0.01389270021 -0.0211687023 0.02350376142) 3907
(-0.01740640083 -0.03372569443 -0.000822772106) 2266
(-0.01835763072 -0.02330435275 0.007956647277) 2946
(0.04946921271 -0.01026814842 -0.02644560269) 759
(-0.005767643085 -0.01138514723 0.02441192478) 3948
(-0.02934209749 -0.01473902203 -0.03780264067) 104
(-0.01917569604 -0.01250304069 -0.01708472939) 1386
(-0.01056952545 0.0007264924679 -0.006162049771) 2087
(-0.02175959479 0.02035756524 0.01788486944) 3765
(0.04439127976 -0.02828814302 -0.03854251763) 58
(-0.03092156753 0.02909718603 0.02856910243) 4423
(-0.01583163318 -0.01382998317 0.03336827455) 4586
(0.0496623463 0.008421219535 0.02564122724) 4359
(-0.004208638467 0.01455390558 -0.0296240205) 849
(0.04204410887 -0.0202187808 0.004030667002) 2638
(-0.02521170772 0.03071956112 -0.002175219054) 2524
(0.02208054256 -0.02047998844 -0.02311875104) 1034
(0.001283457932 0.001144130959 -0.03493738496) 490
(-0.002176001518 0.03334707795 -0.02512460872) 929
(-0.006890060253 -0.03145227667 0.004042580501) 2588
(0.02123748904 0.03229238165 -0.03673084793) 294
(-0.0492411889 -0.0353032991 -0.03599410791) 0
(-0.02302388551 -0.002463100847 -0.03567598086) 145
(0.004323855594 -0.03994400154 0.03382563752) 4490
(0.02633583657 0.02116073733 0.02456614789) 4095
(0.03062542231 0.01292150905 -0.02986599818) 856
(-0.01832604286 -0.03643710785 -0.03415458398) 326
(0.0420605272 -0.02226939061 -0.02928028094) 718
(0.02950866301 -0.01500791655 -0.0006631672154) 2335
(0.01764419752 0.01490807228 0.02608828643) 4373
(0.03403451879 0.006119691771 0.02721109423) 4356
(0.02815985301 -0.005914497164 -0.03267523429) 455
(-0.005780247147 0.02146482396 0.03052836419) 4728
(0.0006676973444 0.005205333086 -0.02544711708) 830
(0.03939727661 -0.02041393609 0.02100253317) 3917
(0.002010695696 0.001187678768 0.01879570232) 3690
(-0.03278684212 -0.02208315346 -0.02119817096) 1023
(0.003425048609 0.02143849535 -0.0176680302) 1530
(-0.007955036392 -0.02675482286 0.023285624) 3888
(-0.005956438765 0.02706041449 0.01041408847) 3468
(0.02128051757 -0.005536043657 0.007278476786) 3014
(0.009233855796 -0.03112526634 0.02354661432) 3871
(-0.03588192278 0.03326262253 -0.000529383584) 2522
(0.03382441461 0.03053828187 -0.02445515447) 1256
(0.003932614949 0.02665422183 0.01795070574) 3790
(0.04499501452 -0.01177192916 -0.02724135337) 758
(-0.04113521192 0.03930900284 0.01518391224) 3821
(-0.04655784182 0.01980235705 -0.02617794808) 860
(0.0478024176 0.0005872815677 -0.01040715685) 1779
(-0.006352665362 -0.02816644499 -0.02028051766) 1008
(-0.02918108174 -0.0178013183 -0.02660858084) 724
(-0.01943059707 0.03723373974 -0.01261130017) 1906
(0.00453053504 -0.03789051594 -0.02092677361) 970
(0.02945070144 0.03816785363 -0.03839116632) 315
(-0.001871683032 0.01357077997 0.01386770579) 3409
(0.03471953652 -0.004067442211 0.03589994612) 4956
(-0.02918793541 -0.005945465787 -0.01887353701) 1404
(-0.02133949281 0.01925281062 -0.005193632709) 2145
(-0.03476809568 -0.03209421835 -0.02525372911) 663
(-0.04721147046 0.008685656011 0.03196034105) 4660
(0.04962969883 0.02475727821 -0.0314495506) 579
(-0.01579166466 0.02067174368 0.02866662056) 4406
(0.008581922512 0.00750235592 0.02030221064) 4031
(0.02614689717 -0.0193963004 0.001985127165) 2655
(0.04880031769 0.002175771775 -0.009386239595) 2099
(-0.0464875912 0.001891441823 -0.002635919682) 2400
(-0.0398255106 -0.01347230124 -0.03334100945) 422
(0.03766925346 -0.0290724928 0.02682963126) 4217
(-0.01808859242 0.007125021631 0.004811715313) 2746
(-0.04338446836 0.01083640251 0.01013527571) 3401
(-0.04355746966 0.01171071606 0.003072891068) 2761
(-0.0379826144 0.001379913087 0.01433894178) 3362
(-0.0461736674 0.003478308661 -0.001103167478) 2400
(0.04689965908 -0.000790462172 0.03387573101) 4639
(0.002356756739 0.03612392145 -0.004821530525) 2550
(0.006098260576 0.01149155664 0.03058679192) 4691
(0.0224563675 -0.005124894876 -0.001847698592) 2374
(0.04537222673 0.001658461749 0.02941914434) 4339
(0.005900530206 -0.02811465268 -0.004413718849) 2291
(0.04121653419 0.01712029441 0.03477686993) 4718
(-0.01838260828 0.02478737167 -0.03558781879) 246
(-0.01839386639 0.0192876116 0.004694468378) 2786
(0.02384823469 0.008720842529 0.03264249373) 4674
(0.002997305149 0.03529913587 -0.00954102279) 2230
(0.03649423744 0.02257454708 -0.01016982212) 1857
(0.01436029155 0.02090375213 0.006033519007) 3132
(0.02745805455 -0.02684086603 0.02788151532) 4215
(0.04916227206 -0.007308427135 -0.0228253453) 1099
(-0.04349436979 -0.02259675047 0.01008692266) 3261
(0.02543792798 0.02134186456 0.03673995218) 5055
(-0.03361060082 -0.02775670083 -0.007111603024) 1963
(0.01236487968 0.03702548285 -0.03924103742) 312
(0.000226049793 -0.003435554855 0.01683458635) 3670
(0.04947001622 -0.003348831683 0.005054346602) 3039
(-0.03037598305 0.01810642916 -0.03116007468) 543
(-0.03441901216 0.03332538514 -0.02525460598) 923
(0.01210201842 -0.02360184956 -0.03633991577) 72
(-0.02030735217 -0.001566318047 0.01984129196) 3665
(-0.02442570821 -0.02417348736 -0.03510382395) 65
(0.04504341149 0.02578560039 -0.0105699232) 1879
(-0.01079984427 0.03348200433 0.004617101823) 2847
(-0.01282047812 -0.004300355451 0.02417629098) 3987
(-0.001826993033 0.03002614762 0.0180544697) 3809
(0.0208105066 0.0009697461244 -0.01945157631) 1454
(0.04650716947 0.000488833305 -0.02377228636) 1139
(0.03035931353 0.01666944096 0.03338202735) 4716
(0.02278589393 0.02298837489 -0.03415841851) 574
(0.01494215076 -0.01271312083 -0.02583689017) 752
(-0.01941379874 0.003160065692 0.01610037053) 3686
(0.02873142366 0.0378072428 -0.01952483693) 1595
(-0.02722001271 -0.01454280992 0.003908312614) 2664
(0.0231562387 -0.007554959615 0.02949115966) 4294
(0.03742478095 -0.03469378183 -0.01258407356) 1637
(0.02369058398 -0.03082140359 -0.001695596205) 2274
(-0.01521451287 -0.03353795904 0.02476679402) 3866
(0.04423406594 -0.009018742305 0.02408555024) 3978
(0.0008924758544 0.0209174301 -0.0214671612) 1210
(-0.0165035682 -0.01097661015 0.03928569629) 4906
(-0.005797338183 0.02621779603 0.03310748592) 4748
(0.02996959808 0.02421602576 0.005379113014) 3135
(-0.046096733 -0.01753066236 -0.03211636166) 400
(0.01589553822 0.02671089075 -0.0347465893) 593
(-0.03893843388 0.003508239623 -0.006509297986) 2082
(0.003809894186 -0.01776694776 0.003629070445) 2650
(0.03279619025 0.0383944487 -0.03250496907) 636
(-0.01883131346 0.02417572488 0.01307593199) 3446
(-0.03499896861 -0.01448180611 0.01936846199) 3623
(-0.04958595662 0.03461164446 -0.01406569706) 1880
(0.01462409911 -0.02392483633 -0.0331348976) 392
(-0.001246620294 -0.01234563143 -0.03543297701) 109
(-0.01621060413 -0.003156953724 0.01727441444) 3666
(-0.002627288419 0.01864600736 0.01162033262) 3429
(-0.02256580271 0.03320193631 0.01722996786) 3805
(-0.03593638908 0.036780412 -0.006719966188) 2222
(0.02048516745 0.00625959416 0.03243674178) 4674
(-0.03072612991 0.01199357114 0.006438905031) 3083
(0.003977544292 0.001714785269 0.0003587495562) 2730
(-0.03311852496 0.02070118928 -0.01748233052) 1523
(-0.002434553897 -0.03561755631 -0.0231114118) 969
(-0.0464953689 0.02777250904 0.01705354469) 3780
(-0.008836892538 0.01159774879 -0.001917242892) 2448
(-0.04114682265 0.00417134526 -0.0204493369) 1121
(0.004671010196 0.02523340597 -0.02720371182) 910
(-0.02419645934 -0.03284483238 -0.01611667581) 1305
(0.04703494524 0.03203043512 -0.009579794201) 2219
(-0.0005626068007 0.009175469414 -0.002114456512) 2429
(0.007379269018 0.03200760217 0.03913155971) 5091
(-0.04351638352 0.02892496563 -0.0287595008) 901
(-0.0346726615 -0.03687229945 0.00614933625) 2883
(0.007373239151 0.02982154985 -0.004088278961) 2511
(-0.0319287127 -0.009477140995 0.02876155767) 4283
(-0.04987911108 -0.03348678034 -0.03303656584) 340
(0.01302567355 -0.01625157699 0.03232207628) 4572
(-0.01239575474 -0.03191874747 0.01440076759) 3227
(-0.04452953541 0.0009029559014 0.007073806299) 3041
(-0.03151100908 0.03630824644 -0.01092832075) 1903
(-0.03070296971 -0.03103856241 -0.03093436097) 343
(0.002234448682 -0.01041653764 -0.01779333479) 1390
(0.04718282538 -0.03134702597 -0.007016402335) 1959
(-0.01692582859 0.002809413623 0.03800961413) 4966
(0.01950538707 -0.009722259231 0.01129167296) 3333
(-0.04848545661 -0.0158576036 -0.01978747765) 1360
(-0.04046992878 0.01542536446 0.02833172719) 4381
(-0.01041230598 0.01459959793 -0.005963997525) 2127
(0.02888204952 -0.02254910005 -0.01014048818) 1675
(-0.01405412036 0.03175808137 -0.0156542583) 1567
(-0.04790129411 0.01865166097 -0.01047667902) 1820
(0.04006927409 0.03017815825 0.006105170887) 3178
(-0.04744009162 0.02082478275 0.02358306317) 4080
(-0.008884849975 -0.03257072395 -0.02479415586) 988
(0.002794172376 0.03388211502 0.01242219529) 3490
(-0.04580804547 -0.03760389518 -0.02321651406) 960
(-0.03504907905 0.005347888553 -0.01739912927) 1462
(0.02903045804 -0.03604826052 0.01374391347) 3215
(0.02557821742 -0.03633528886 -0.002684967629) 2255
(-0.01660018532 0.0234545878 -0.03724374196) 246
(0.04541528734 -0.02088113306 -0.02448541527) 1039
(-0.01039530007 0.02608548475 0.02141078199) 4107
(0.0453809655 -0.03441394642 -0.03122753677) 359
(0.02736764548 -0.03290695884 0.0173034705) 3555
(0.03847717791 -0.0020374759 0.006065490504) 3037
(0.03604558821 -0.007441815261 0.007452442835) 3017
(0.01840436761 0.03641774078 0.0232123162) 4153
(0.04215090413 0.0009426518674 0.03184710116) 4658
(0.0457868291 -0.02733712531 0.008151605139) 2939
(-0.02139510399 0.01066038274 -0.02976668133) 845
(-0.03634947252 0.01667539269 0.01574397719) 3742
(0.0006842539804 -0.01247703845 -0.01408197289) 1710
(-0.003882267841 -0.01083755637 0.01728990448) 3629
(-0.04518308679 -0.03994139114 0.01362763469) 3200
(0.01567888453 -0.00517601703 -0.03662203597) 133
(-0.02558154721 -0.0004796422049 0.03451602776) 4624
(-0.03047449162 -0.01033201778 -0.02729078783) 743
(0.01941017441 0.03881967381 -0.0211285076) 1273
(0.02056674926 0.03032407727 -0.02568070055) 934
(-0.02630799242 -0.01268409638 0.01851802639) 3624
(-0.01815596086 -0.003428112844 -0.003760913113) 2386
(0.01273950743 -0.01351363965 0.01073883087) 3312
(0.03775722959 0.02930213786 0.01741318961) 3797
(-0.02249491359 -0.02508270233 -0.03806798085) 45
(0.03259986835 0.03075813418 0.01194565738) 3496
(0.02722821377 0.00981501352 0.005533076329) 3075
(-0.01099994463 0.004262004468 0.02396441338) 4007
(0.01794670348 -0.02312213287 0.02176218092) 3913
(0.04034598806 0.03957813264 0.02098063921) 4158
(-0.04015302282 0.03425162826 0.01649032335) 3801
(0.0146807923 0.02411753353 0.02076635442) 4092
(-0.01873132386 -0.03692273596 -0.02389501052) 966
(-0.002250703379 -0.01796000463 -0.006040001805) 2009
(0.02914996981 -0.008498932217 -0.01439862768) 1735
(-0.02955463198 0.008353818366 -0.005417671692) 2104
(0.02672620393 0.02704847141 0.005984135754) 3155
(0.01045820194 -0.003152074697 0.01627054079) 3672
(0.02392289474 0.03860863604 -0.0085144985) 2234
(-0.008328898857 0.02760869073 -0.01932893223) 1548
(0.04964704573 0.01395009083 -0.03942729421) 219
(-0.03416030941 0.0204040622 -0.01893880434) 1523
(0.01994239433 -0.02471435681 0.02586202447) 4233
(-0.007391859585 -0.01551659241 0.0104125941) 3288
(-0.03751377971 0.02146077008 -0.005501841467) 2162
(0.04924722846 -0.03830562328 -0.02952205884) 659
(-0.006700583663 -0.03750251718 0.0325325635) 4488
(-0.03116347784 -0.01422048193 -0.001179884019) 2343
(0.04085605201 0.03090273129 0.03989004003) 5098
(0.02926625356 -0.00889178274 -0.01343437523) 1735
(0.006249612187 -0.02787039255 -0.004348972763) 2291
(0.02846953809 0.0113200765 0.03848792351) 5015
(0.01591813932 0.03600957615 -0.03259374662) 633
(-0.005591438582 0.0388089615 -0.03766671356) 308
(-0.01322606073 0.003901918339 0.02201357456) 4007
(0.005443698663 -0.03369680888 0.01333164805) 3231
(0.01417265126 -0.01821245093 0.01476638207) 3292
(-0.03549442549 0.01637360953 -0.0003284306823) 2462
(0.008716939474 -0.03984175073 -0.02012273828) 971
(0.01174606798 0.0228199575 0.002991213992) 2812
(-0.0009419490059 0.01358858608 -0.01079911402) 1809
(-0.04984219081 0.01248511638 0.02722179238) 4360
(0.02074566049 0.02066707614 -0.0007071343293) 2494
(0.02471738706 -0.0222640335 -0.03434144783) 394
(0.04476858783 0.01772065685 -0.001993891721) 2478
(-0.01555514998 0.01657459532 0.01629150836) 3746
(-0.0001285260276 -0.03964959775 0.0007889076984) 2569
(0.04812086646 -0.01164698986 0.01252587464) 3319
(-0.016626208 0.01957683961 -0.01932079731) 1506
(-0.02547491469 -0.01614655523 0.02405747779) 3924
(-0.0005372459439 0.03255865885 0.01189493876) 3489
(-0.02394764939 -0.03732337197 -0.02958260314) 645
(-0.0049228084 -0.02874739209 -0.02354598772) 1009
(0.004698796518 -0.03872748294 -0.00420999021) 2250
(-0.0400055342 -0.03469694885 -0.03884104483) 21
(0.02796033965 0.0205726289 0.01297198793) 3455
(-0.02115586952 -0.03452551587 0.03235135664) 4505
(0.01605776503 -0.03340495029 0.01407474416) 3233
(0.02172208204 -0.005293918305 0.03408463204) 4614
(-0.04965348345 -0.0007050380075 0.02960448778) 4300
(0.02116865517 0.03868169072 -0.03841277847) 314
(-0.02885991417 0.003418077107 -0.02977120517) 804
(-0.0436443073 -0.01765589043 0.025581219) 4241
(0.03558807632 0.01723461806 -0.03191894298) 557
(0.04486566541 0.001157353065 -0.02944595271) 818
(-0.0173379382 -0.0240970679 0.00795597118) 2946
(-0.03125395989 0.03606171807 0.01031530411) 3503
(0.03902823055 -0.01693057366 0.01364237691) 3297
(-0.04642025574 0.0259928909 -0.00782816203) 2180
(-0.01618275357 -0.003799652542 -0.02632155413) 786
(-0.0171574916 0.03385922159 -0.02413819811) 1246
(-0.04864711844 -0.03520519962 0.02367205611) 3840
(0.04900619434 0.01721979807 -0.01124069563) 1839
(-0.04612955397 -0.02261901894 -0.01887371647) 1340
(0.00143638533 0.03307041635 -0.02024507012) 1250
(-0.04753161328 0.0139270936 0.01081594234) 3400
(-0.006768903914 -0.007238256225 -0.003769756102) 2368
(0.02428899101 -0.001967739145 -0.01853383737) 1434
(-0.0157513704 0.03496113525 0.0001422466062) 2846
(0.01029077677 -0.0350351715 0.03370675515) 4492
(0.0403921958 -0.03380484603 -0.01404365886) 1638
(0.04146346825 0.008058567442 -0.015362028) 1478
(0.01259742686 0.004801957606 -0.03110029908) 492
(-0.0009451647883 0.02783224948 0.02791450087) 4429
(0.004588208072 0.02650552763 0.03396476226) 4750
(0.0005310686692 -0.02746754425 0.02259883312) 3890
(-0.00798011307 -0.01375418099 0.009043163644) 2988
(-0.01179659852 -0.03291615694 -0.005668152363) 1947
(-0.001827147343 -0.01665466593 0.02891088231) 4249
(0.03013974629 -0.01937827083 -0.02691756778) 736
(-0.0112543393 0.02923688453 -0.01133970458) 1867
(-0.03485495995 0.009674374243 0.03492471829) 4663
(-0.01272478662 0.01181039468 -0.03580192705) 207
(0.0001311434289 0.0313153812 -0.03939183221) 290
(-0.0155809926 -0.01250123903 0.01448474842) 3306
(-0.04748277933 -0.02913147671 0.03246217032) 4520
(-0.01580492247 0.02390662678 0.01813897727) 3766
(0.02792394346 0.02995209729 -0.01595906005) 1555
(-0.03082776722 0.03615398904 -0.01610672779) 1583
(-0.02757909277 -0.02142426007 -0.009065596544) 1984
(-0.03078576475 0.03769348805 -0.004015045928) 2543
(-0.04274977584 0.0004028038118 -0.02001826682) 1121
(0.02922388597 0.03834410122 -0.03606839754) 315
(-0.009829598473 0.01060895262 0.03475429315) 4688
(0.02710649804 0.02530394528 0.03689355285) 5075
(0.007769840387 0.003029498558 -0.01902142189) 1451
(-0.03643025644 -0.02197860906 -0.003885130539) 2302
(-0.04704467076 0.0008837533995 0.01503993885) 3680
(0.02839670134 -0.005396792454 0.03226541907) 4615
(0.0108281424 0.007409484014 0.03365973262) 4672
(-0.03688941777 0.03794552322 0.01266646587) 3502
(0.04030339077 0.007577139993 -0.03831232081) 198
(0.02781150957 0.02680556736 0.006897713107) 3155
(0.02748339178 0.01665348351 -0.01490953903) 1835
(0.01248036024 0.0223569608 0.0008706468593) 2812
(-0.02313142436 0.02091837185 0.02017007831) 4085
(-0.0454860402 -0.005518879425 -0.014520629) 1720
(0.03097965259 0.01239427162 0.02966638432) 4376
(-0.004457153137 0.03416621781 0.005597133344) 3169
(-0.02417976767 0.020029077 -0.005967505145) 2165
(0.02552383952 0.01074373746 0.03484586249) 4695
(-0.004240524761 -0.03731487518 0.03182471909) 4489
(-0.02725642762 0.0276992906 -0.03360192471) 584
(0.0080088981 -0.014700501 -0.02303060378) 1071
(-0.01584614372 0.0397750003 -0.004018652866) 2546