/*--------------------------------*- C++ -*----------------------------------*\
| =========                 |                                                 |
| \\      /  F ield         | OpenFOAM: The Open Source CFD Toolbox           |
|  \\    /   O peration     | Version:  2.4.0-MNF                             |
|   \\  /    A nd           | Web:      www.OpenFOAM.org                      |
|    \\/     M anipulation  |                                                 |
\*---------------------------------------------------------------------------*/
FoamFile
{
    version     2.0;
    format      ascii;
    class       vectorField;
    location    "0.0007/lagrangian/dsmc";
    object      U;
}
// * * * * * * * * * * * * * * * * * * * * * * * * * * * * * * * * * * * * * //


64126
(
(1872.640425 35.38493359 44.0129086)
(1779.388726 119.4585186 206.2325853)
(1823.638661 90.15290131 -231.0567917)
(2109.825228 342.7627549 194.6864241)
(2015.209733 23.3871022 -207.8079697)
(1496.858939 5.869318183 113.1766839)
(1891.353396 -288.0383157 -142.1348321)
(1707.124171 -414.1631271 -104.7454889)
(2136.400667 -368.974048 -161.1760986)
(1597.942675 30.11195701 78.75236967)
(1985.488628 -623.1500698 -235.9783445)
(2084.220784 84.72321038 8.345382059)
(2278.579087 14.56044043 134.0904455)
(2054.719388 57.09423112 -334.4705983)
(1674.8298 300.4783717 265.6413608)
(1665.321801 -290.3404664 -152.2277334)
(2140.124505 -449.9403562 -403.8593259)
(1893.723733 171.4556091 80.59371581)
(2259.45819 -145.0162181 -54.03267516)
(1766.103744 195.088936 318.3548683)
(2370.458005 -283.4046966 300.4843694)
(1601.913419 -68.32013016 251.2626351)
(2046.698424 239.1028339 150.0645574)
(2353.066265 -622.6558393 29.88757982)
(2407.113954 17.44991968 -208.1591463)
(1908.981327 -444.9609759 112.4395516)
(1580.521698 -465.8379802 -306.5028747)
(1986.789301 243.231876 210.7296905)
(1477.367984 -113.4969296 291.4770389)
(2149.271109 -430.6292417 124.7202386)
(1569.818052 168.4557763 84.70640649)
(1607.955628 -173.9591384 272.0008906)
(2420.855212 368.827094 -476.8254319)
(1840.999145 -498.0947318 -261.6833013)
(2351.259117 566.8790222 440.2844311)
(1548.72964 -409.8486115 -368.6916377)
(2140.899144 424.7682605 -302.4501757)
(1760.29751 96.02361547 205.1089979)
(2029.675151 175.8885098 -436.1111083)
(1509.255439 43.11114847 45.90066611)
(2130.829894 -83.20135642 -233.8727842)
(1739.027462 277.7174363 314.3410438)
(1861.116752 -221.3406288 -510.8779637)
(1620.516398 104.6817643 462.1196103)
(2193.928793 439.9428323 -111.257058)
(2227.506852 197.3375159 -135.4068318)
(2171.812002 20.28215074 189.7091745)
(2387.632167 -111.963801 762.040647)
(2064.633855 -139.2290474 -540.1526537)
(2371.227375 189.5215553 -550.7123781)
(1877.72645 179.337306 -435.0013821)
(2403.516797 1.21387859 326.1779046)
(1839.147974 71.20401525 -126.3806356)
(1585.129184 197.8662051 -372.171552)
(2358.324881 501.6181391 -383.0225746)
(2161.075728 211.1644926 145.0898779)
(1150.456441 85.53331207 -510.0069674)
(1740.804631 -145.1792589 6.44398073)
(2395.321155 600.0970678 -464.1899835)
(2199.776767 231.7639177 -206.7057783)
(1982.282468 -275.4111487 -239.3909328)
(1657.697204 -416.8844971 -248.2101164)
(1227.883835 193.4336582 -71.83970808)
(1272.988751 328.4619174 -16.34838571)
(1724.21907 20.86670163 498.1192076)
(1846.591292 417.7759017 5.481501448)
(2001.485571 -63.8940105 562.0212655)
(1582.305829 14.70531165 55.34180294)
(1705.519742 -219.5208219 353.8794471)
(1663.584423 240.0155857 -106.4277899)
(1753.247266 230.2969357 -200.7667278)
(1751.874845 169.5011965 -256.6747972)
(1936.894174 85.64954628 -227.769229)
(2108.123603 148.1732836 -286.0114744)
(1825.948534 76.35044229 -71.91323957)
(2463.165344 -255.9724742 -269.0915571)
(1793.948201 -163.2992271 -43.12018414)
(1958.684655 -400.7587651 555.7643468)
(1634.578747 -65.64451073 233.7896471)
(2049.226303 357.1840467 149.4214464)
(2031.982127 50.34167085 72.00665533)
(1881.416443 -41.29943638 102.1420134)
(1629.116214 386.9097843 26.91800657)
(1560.279602 -15.46162692 90.0713358)
(1521.42074 -163.9884674 102.9709276)
(2103.002403 -503.2584991 388.6709798)
(1714.193846 -70.82018928 -160.1435917)
(1875.637372 -554.9360677 209.0859997)
(1807.125747 -23.67587318 124.9401303)
(1503.508532 511.2120679 255.5226415)
(2358.91812 -80.18200738 318.8165759)
(1875.521315 39.72384548 185.3478291)
(1872.595897 365.2402227 -187.700491)
(2139.447595 -80.025196 -165.2504683)
(2046.502642 229.6297053 -359.3670007)
(2000.418495 -242.2987833 -6.772875415)
(1688.971812 -14.77100587 301.5344534)
(1923.531525 -177.4529542 70.47734524)
(2105.265006 93.19428637 -32.91924226)
(1984.403926 209.8896697 -351.0637874)
(1655.106234 69.98035551 -250.3698416)
(1761.417796 155.8047275 166.7953013)
(2150.363747 -370.4792935 -43.26225351)
(2027.658388 -10.90806286 92.35819181)
(1673.806523 -194.930585 509.2543083)
(1995.448376 561.1543337 -177.7291983)
(1966.103266 269.8446775 -60.80578147)
(1889.03493 -134.3776891 -375.294295)
(1926.848797 -302.9310628 244.5183935)
(1782.194703 251.8486874 -351.3036244)
(2396.067075 -15.27025558 -17.6696038)
(2186.757224 47.31543212 259.891508)
(2472.236932 -163.3431921 78.51530751)
(1913.812754 -257.5036428 -256.041084)
(2170.473639 354.5465572 176.9181802)
(1928.985794 114.3847139 -126.6301165)
(2108.230706 126.1946685 -187.4707342)
(2053.6994 196.1986794 37.33321915)
(1753.948418 378.4832947 316.3514132)
(1427.115309 18.682627 155.2913329)
(1911.620859 -170.364045 311.4282533)
(2431.478921 -517.6864309 359.3216367)
(2502.604031 -255.8128339 192.519772)
(1940.152932 88.74765665 117.2219959)
(2175.947654 -28.66900901 262.0134258)
(2166.033949 4.156268572 -73.49746535)
(1663.869484 126.4964814 251.541914)
(1935.637843 -317.1868148 445.0930723)
(1531.805413 568.1248891 63.00571768)
(2038.128459 28.0038348 2.968712498)
(2016.058316 -33.38417588 265.2155956)
(2277.499823 -206.7304931 51.04146905)
(2442.796447 -19.11329482 -17.02558563)
(1440.984846 -183.8609821 245.0422755)
(1406.47345 -269.881423 -100.7383864)
(1679.66303 157.7914131 -318.5056781)
(2201.602875 350.7884219 -305.2386404)
(2268.538062 96.01355338 112.2786973)
(1533.152088 -285.2811671 380.4055157)
(2206.580954 87.49105378 189.142883)
(2537.514155 -166.7817413 -198.2846782)
(1957.966493 -240.8664803 260.9507825)
(1991.234186 -353.8055237 49.2019526)
(2182.492231 -585.6382926 298.3397564)
(2234.365145 82.35499058 -358.4558217)
(2086.428519 -568.950015 -75.3278207)
(1769.65439 -76.48189854 128.3785435)
(1783.270742 -82.69413609 -859.0055718)
(2051.464573 53.85330046 12.08185274)
(2386.789743 -37.41932563 -521.7418693)
(2224.03836 -80.92322716 -155.2293803)
(1746.309944 191.8370281 121.7222892)
(1657.930578 -252.7213446 -532.6401143)
(2065.357877 -100.4529414 135.6119042)
(1898.099982 305.5091169 -1.342581895)
(1661.856046 -356.1618016 39.19408622)
(1922.367032 102.2319538 -302.4228611)
(1374.255255 421.8210878 -161.5745504)
(2547.395054 4.619383864 -36.45810793)
(1923.751795 -355.9530256 242.7998845)
(1558.754743 -447.6209428 -488.7859011)
(1606.584718 19.8254615 -265.4409484)
(1908.256879 3.947332735 -72.39136087)
(2044.090662 -53.35531455 27.64721759)
(2236.207379 142.9698728 -287.7314876)
(2042.844708 -535.5853714 346.1108596)
(1620.740523 331.9975464 -215.8571391)
(1384.352908 70.51111489 -46.1562353)
(1740.417578 238.9582252 -321.8620574)
(1818.344831 288.8612749 -368.7134333)
(2302.034362 -116.1961165 -270.9326195)
(1803.010338 160.3083671 -281.2756266)
(2281.192364 121.2912089 207.5217439)
(2192.145757 -171.6672972 165.2675336)
(2144.565665 -110.9862761 -95.98871486)
(2443.347977 -192.8658185 -203.1185839)
(1972.696458 87.60814425 -438.6376906)
(1782.505365 195.9724361 143.312767)
(1852.998606 -172.9204696 -274.0037559)
(2074.533315 -242.6560986 677.2307081)
(1142.410809 158.9664943 -185.4510817)
(1819.23564 616.0614631 19.79736041)
(1844.8336 58.16770736 -223.6807427)
(2135.922759 -232.0854967 -315.670508)
(1414.075037 338.9694472 220.2843918)
(1933.939895 117.072586 328.0677821)
(1233.533236 -363.6326957 -542.0076959)
(2289.576922 -157.2131122 -183.1506618)
(2344.903613 -320.9112892 -383.9406422)
(1694.609192 168.5940802 -28.63375168)
(1607.540954 152.122857 -240.3989471)
(2144.8115 -353.3019974 -290.3247155)
(2045.439885 -348.6838222 194.3054881)
(1961.948122 55.43232129 -235.6439653)
(2168.768067 -263.3203133 -349.9339325)
(1830.120788 -178.0569859 64.82563344)
(1642.923109 -205.3172409 -500.6134646)
(1528.345869 208.6550531 -15.11878102)
(2188.188396 82.58416851 170.3083973)
(2067.812134 647.138542 -75.19268193)
(1894.47739 236.5272104 199.7183559)
(1340.415618 485.7983428 -315.2486207)
(1872.70719 -219.2271723 -236.4248224)
(1493.993865 -131.6339015 -237.3302134)
(1826.260823 -213.8476639 -105.6666072)
(2100.007286 -175.0745203 -273.4136261)
(1874.279631 -508.1264263 -102.6787496)
(1818.617579 -297.3538304 -143.9277737)
(1556.636078 515.1244687 204.3484622)
(2378.284295 -43.72568834 -31.43601942)
(2651.26468 268.8717664 -789.5132626)
(1831.587588 -525.4515159 -22.46994947)
(1841.709506 417.9284776 157.5812435)
(2003.532527 386.814205 61.0780164)
(2007.040777 188.3048904 -700.464987)
(2404.87846 -22.81547415 -150.9345815)
(2069.209169 148.7699267 632.0595706)
(2520.698477 -220.0207918 160.4819851)
(2023.526182 368.1186769 -310.4491833)
(1910.078709 0.3488283321 120.8662622)
(1900.779286 -240.5142241 297.5646066)
(2016.214279 60.79321357 -142.3344367)
(1844.978627 314.3443235 402.8697875)
(2487.959307 -913.7588313 27.84787517)
(2140.273897 69.31871016 -143.3308634)
(1805.280467 -82.964122 272.3186393)
(2166.594943 -43.34640825 -228.0238471)
(2182.100635 -106.995918 -113.5138804)
(1332.727708 -318.2006461 531.9251722)
(1638.051745 857.8757898 215.6418349)
(1632.212359 340.5678487 -211.0794458)
(1918.677132 221.8356007 -279.0747847)
(2086.992469 -351.1985188 232.156752)
(2097.405595 115.381997 63.98344239)
(1950.100531 -6.490505451 103.661178)
(2238.303772 183.4270917 130.0732619)
(1788.199069 -73.58923553 763.278867)
(1580.627233 -846.6668278 -277.5125672)
(2271.891268 -75.07511969 25.92259833)
(1824.26429 -120.9347376 -35.8399513)
(1690.749268 649.1563012 -133.68856)
(1843.013877 -16.77388495 22.97379869)
(1651.493823 92.47263215 -484.5082113)
(2020.782994 418.876444 -297.3538194)
(1934.929427 -9.172241402 -8.725721479)
(1805.262535 309.032348 195.5288342)
(1530.093141 53.38362999 -75.09914482)
(1920.904532 257.2931966 259.0754517)
(1771.198153 -217.8993819 17.7485119)
(1971.132807 164.0730577 -372.8255275)
(1526.782554 349.4371373 153.4951709)
(1900.467586 -166.3224005 -635.483515)
(2322.682085 242.7184291 191.0112696)
(2119.781636 -605.4873405 377.2294811)
(2159.519787 110.6379457 -77.07257123)
(1658.916955 280.132751 347.7296915)
(2146.542067 -522.6404734 91.86795017)
(1876.183777 555.3357481 102.6523784)
(1969.811135 -427.481708 -156.8525917)
(1800.365193 413.9696419 -94.70541857)
(1812.125473 349.7403555 -191.6069439)
(1670.46061 -82.57011548 -377.301686)
(2066.670044 401.0028208 -96.03044229)
(2154.014571 270.3411393 -307.1423024)
(1813.104094 526.5952414 147.8965228)
(2218.849563 208.6909715 175.1288797)
(2176.310652 826.1853447 168.8215045)
(1689.622803 417.175657 540.2878776)
(1896.789582 -249.5632248 323.0889576)
(1804.948902 -652.9149639 -157.8812651)
(1743.299718 85.66063153 271.5477045)
(1880.682 -205.5244767 -37.81504796)
(1770.957754 -193.9104943 18.6359673)
(1626.269712 -55.14112428 117.3548015)
(1695.471377 239.4197228 426.2576809)
(2171.846273 557.1712396 -385.7726993)
(1882.675961 91.48181452 -225.8097228)
(1639.242481 -134.7110587 -470.5542439)
(1537.927583 261.151334 166.78708)
(1478.957603 -256.7875799 -413.9873886)
(2099.625251 -541.9985497 -528.0801115)
(2246.27601 -81.08168748 -72.71946984)
(1877.223129 -364.8502932 4.121724728)
(2360.565955 250.2627536 97.23243433)
(1796.837782 309.8320073 169.6053252)
(2082.457667 -36.63705072 132.705714)
(1531.857361 257.6353219 -57.56612704)
(1976.488002 -653.6105523 282.1556758)
(1779.960319 472.4217178 3.507239548)
(1891.599683 40.04818449 -547.4224199)
(1736.036613 -311.3690934 -181.5786489)
(1834.729137 557.4700342 -450.1128507)
(2008.848127 222.9403722 420.0777329)
(2114.234714 -509.0665058 -62.91881425)
(1571.433649 -132.593559 234.5610945)
(1623.196554 -119.295643 551.6153244)
(1346.390076 335.0964596 -362.2639656)
(1446.363151 274.0010757 6.793966318)
(1814.779793 -18.9059071 303.7193472)
(2111.701964 437.0741812 -47.17337548)
(2020.676306 -101.6137376 463.1947943)
(2327.004049 -421.4160228 11.55507642)
(1834.206804 -217.3510867 -371.0478272)
(1743.85281 -234.1672316 229.7043989)
(1410.353522 282.4620369 124.2211124)
(1939.471683 -227.6787533 107.6617657)
(2262.264546 -215.9467107 -530.2794629)
(2103.458351 -95.94409357 376.427776)
(2218.728965 -43.49954852 -185.7244392)
(1954.560131 -19.08522309 116.8976796)
(2126.04807 130.9935011 -784.489258)
(1577.039085 110.2955137 -237.6350302)
(2271.723602 43.66237699 -128.0757983)
(1684.759005 -121.8839815 -318.2903532)
(1764.152914 97.99581188 544.4322756)
(2183.77126 0.6240328597 -406.0802223)
(1421.321618 -86.44999994 -216.0755931)
(2272.31987 529.227107 -107.2160058)
(1756.946087 -68.49671613 153.3027558)
(1805.535728 -4.589416486 -26.25661751)
(1821.813002 180.6619897 -337.0457944)
(1734.461999 -249.7513506 -142.4307375)
(2012.128649 -368.3632653 -518.8087949)
(1055.691938 264.2772424 14.04115092)
(1925.574106 -58.55284017 70.35491787)
(2053.231328 -227.3428995 -189.9063635)
(2132.067692 666.8400444 226.377111)
(1512.27281 121.0096844 92.09498086)
(2316.143815 -165.2488048 9.952360003)
(2127.921082 271.6567601 157.7854031)
(2292.45768 705.3725931 3.175668175)
(1508.973287 -72.67149952 -31.50067934)
(1701.038591 354.5418239 -77.40945595)
(2073.774966 168.5191 -331.7951048)
(1734.865565 94.37761383 442.409759)
(1651.787736 426.9116095 260.7676631)
(2312.553722 9.821779472 -350.4700708)
(1912.263969 347.9005556 -156.7290465)
(2192.022853 -27.78530317 529.6826977)
(1583.977654 -66.11678233 -128.1327145)
(1451.922072 -130.1836351 -87.66683135)
(2394.798947 116.8405267 430.5042644)
(1651.462674 274.6660522 461.8734887)
(1819.784797 -168.5495022 -86.97910522)
(1780.967146 720.7696961 25.48647336)
(2016.300726 -118.4831665 -317.6179699)
(1952.85317 -337.9007106 -162.838735)
(1926.172403 -25.67188792 -153.4160978)
(1369.411008 -553.4304835 184.3147708)
(2255.025118 -150.5671774 -197.1230362)
(1908.074908 -100.1583428 318.3938738)
(2163.731715 396.0901533 -171.519974)
(2185.89568 152.6889882 40.15277399)
(1740.910492 -397.4019595 15.86740881)
(2640.698003 -258.3658068 11.44473162)
(1836.542664 -294.3797417 -170.2151165)
(2013.1747 -4.331242294 -24.60060175)
(2311.368183 13.20365364 -166.7076066)
(1787.601692 -112.5350845 83.43615462)
(1748.185766 21.50343593 -238.0282611)
(1907.464114 -123.7931895 305.0620227)
(1735.627066 174.0635389 -7.046275843)
(2106.555409 -215.3412858 -79.12136651)
(1831.82222 92.6154497 -172.4654497)
(1748.829434 -361.0076815 101.010887)
(2429.910799 -464.7757785 -577.0353327)
(1733.729314 3.764554441 459.1895279)
(2177.439536 -444.8050857 -150.4442274)
(1954.249979 -857.5794853 -293.1928902)
(1557.982778 277.914187 19.89916647)
(1522.127795 408.2226748 -734.043845)
(1939.532542 277.8179598 49.10585816)
(2042.778865 277.6258422 211.4503773)
(1923.001206 85.67591389 179.5261587)
(2574.132923 -73.76454181 -79.55355223)
(1444.015436 -616.5557876 -13.71158077)
(1753.325565 449.9683284 470.5581371)
(2103.684916 68.66062136 -191.7082391)
(1969.969439 16.98834846 222.6162054)
(1613.541486 36.27529737 -132.5379852)
(1324.17028 714.4308931 -158.2048806)
(1738.420037 142.0121721 394.0019688)
(2182.706721 -69.87185316 -209.7048254)
(2022.398664 451.932349 -61.64603608)
(2312.225259 154.889937 -80.92343101)
(2210.412129 -215.1875637 10.47404011)
(1808.191245 19.42404314 93.95524139)
(1987.069096 -203.6301035 -249.3923882)
(2275.823649 -105.9208609 19.97491923)
(2003.868448 79.66676784 -240.2217718)
(2170.566682 162.4442719 -30.14231715)
(1749.144764 891.246587 -69.10619835)
(1875.329827 370.281181 -256.6200263)
(2391.006465 -190.7916416 -104.4265008)
(2068.366631 6.471245618 175.9371934)
(1687.439081 344.6383842 84.93031311)
(1920.915158 -144.1118068 -367.6851154)
(2280.575691 -201.6442014 -644.4179207)
(2193.130917 -265.9070987 68.12336361)
(1582.559274 -442.4435538 379.1263115)
(1960.38704 -84.38853896 184.6622777)
(1924.241521 495.1344906 -346.2391502)
(2346.168175 -558.3562529 255.7201677)
(2392.611456 -204.0550474 -91.8878718)
(2217.762609 -296.7796287 141.8232564)
(1666.328199 -227.6115644 -288.5080189)
(2218.444357 201.0245013 707.120662)
(2078.866161 192.2836184 291.4555736)
(2081.024509 -136.8138137 -660.7892649)
(2099.522354 -645.6644287 -475.6263115)
(1954.044798 -130.7059692 489.4248844)
(2169.978079 482.0429993 -383.7826536)
(1544.211909 -347.5107347 -244.0554108)
(1749.376785 -3.123984767 271.2903781)
(1285.697032 -203.1320297 -266.1257153)
(1683.215017 -134.2305171 -159.8570516)
(1716.959936 -147.4217234 436.1557869)
(1884.790491 -349.5597418 -209.0894756)
(2167.175877 462.8498987 -115.3991871)
(1828.306639 -247.7855183 250.2750004)
(2360.71039 -97.41775721 192.5309212)
(2233.217557 -39.13881379 -78.30922255)
(1845.02607 -19.45384761 410.3626385)
(2119.109323 162.2780193 -227.8158689)
(2252.058441 -88.3550036 125.9627888)
(1565.458369 426.6714395 393.0042588)
(1454.213059 47.16698288 -3.193427301)
(2007.808225 163.8143789 82.41494877)
(1902.780516 363.1581288 453.4574464)
(1685.80994 -257.1021589 230.8034931)
(1584.083595 502.6396791 -375.6416887)
(2350.486811 -178.4372582 148.401766)
(1928.018231 30.11834711 150.2183719)
(1988.14207 289.2132075 421.7353242)
(2198.488029 -65.13738389 -365.7805867)
(1820.590612 406.0016256 23.07584255)
(1870.995782 14.53694418 327.8970186)
(1835.803058 112.8922307 -160.0678148)
(2014.855312 22.49894682 -415.4932944)
(2015.546713 -381.9648946 275.579814)
(2387.583251 373.1525658 551.8531676)
(1834.690968 -161.3567026 -285.2222699)
(1356.957271 334.2974197 286.7549348)
(1874.207054 -146.8143581 -125.0188853)
(2189.984436 -210.7313299 248.5177408)
(2047.978808 -200.639923 303.4680198)
(1980.100975 -152.4615623 -484.4596233)
(2136.478626 159.411856 -124.1969316)
(1714.094252 57.7665741 -51.43329052)
(2399.484471 177.3427692 -184.6474143)
(1749.522928 174.6140891 453.8957299)
(1847.464041 -118.9547172 -100.0987823)
(2093.725196 137.2383767 -584.7713065)
(1426.236166 109.9005324 47.99789562)
(1982.836611 680.7450379 -485.8399398)
(2378.077987 363.7363661 -87.8589424)
(1229.288382 97.70531364 179.3740466)
(2155.293045 -155.1519063 -85.14459749)
(2273.131645 -139.6763432 -274.8448928)
(1679.747964 231.1511934 -233.8503989)
(1695.926206 -9.707700223 362.4150122)
(1880.251612 687.7061701 -402.9145788)
(1345.72478 -264.130074 -103.481351)
(2065.59924 282.2777915 230.332974)
(2147.528675 351.8258116 123.4848878)
(1726.165811 -171.5349911 -358.0029294)
(1631.516504 633.9629684 443.9311008)
(1746.232762 614.1620142 362.0715308)
(1171.751747 500.1313975 200.9686684)
(2318.875166 -51.76551819 176.3871067)
(1894.965526 4.877418498 -344.6973024)
(1807.744012 712.1847977 -215.4467219)
(1620.88184 -204.9687133 792.5460068)
(1617.973364 -419.5214521 319.8654938)
(1870.393754 172.9032978 -495.5247122)
(1693.115406 507.22566 146.6450371)
(2555.504009 -445.8766338 -77.51909663)
(2353.972069 -15.74188979 310.9173831)
(1623.941908 -544.5930508 590.154702)
(2158.018243 -202.9446408 81.1305655)
(2224.170534 -307.6731925 -235.8330392)
(1746.010641 -84.71456405 271.3240762)
(1559.060122 -135.1941066 -36.89553785)
(1386.341464 62.4482073 -180.9374066)
(2461.325299 257.2826955 -620.5621544)
(1933.675496 -40.91227963 -524.0385301)
(1781.634923 235.2052023 -293.212178)
(2178.09571 -99.76534296 766.4746353)
(2151.226472 -180.0143386 55.69712987)
(1932.214175 -217.2737349 -46.64342635)
(1742.60992 -423.7517241 -202.1625302)
(1865.726216 -15.87771942 187.9609807)
(1804.26773 -97.22809602 295.8976316)
(2010.1238 -616.1477944 -334.0502625)
(1743.18569 454.0924664 105.6639985)
(1725.454559 199.4955973 -285.9659389)
(1577.753492 404.1182677 -27.51392586)
(1666.598303 -195.5692712 371.0500261)
(1734.136264 384.2904383 -300.5268322)
(2250.586205 -88.64781681 -153.5195798)
(1769.699138 -173.1153553 -99.28026349)
(1863.134739 12.96067663 -305.008004)
(2416.115189 -356.6971808 -494.7915131)
(1846.533889 -410.7514594 -47.31031375)
(1777.573991 326.6298135 -29.6360148)
(2036.609334 131.3533539 -155.4655929)
(1599.521052 -176.1085188 48.93704806)
(1980.730416 428.5521631 -335.9821515)
(2189.047075 248.4493543 -171.1646584)
(2160.131031 140.6670728 -221.4079014)
(1239.305626 -21.17395434 -605.4041912)
(1949.361805 639.5371333 -276.9310274)
(2179.317021 -199.2475567 -409.5698074)
(1706.585197 -405.2230939 -407.307369)
(1643.645123 -166.2073964 -258.7642551)
(1931.244702 -206.0948654 70.30696737)
(2054.017008 85.2444753 292.1760361)
(1873.571583 638.0379956 -103.0004303)
(1987.210843 101.8907297 48.89866725)
(2351.162456 229.3433655 293.1238515)
(2374.042129 -190.5767381 -245.2947215)
(1832.100603 -38.46803783 501.6066767)
(2081.398817 -260.4737543 -133.754501)
(1888.682433 166.450131 19.92620495)
(1837.371502 190.0736434 134.3870717)
(2012.145201 -106.3003311 -203.3971167)
(1743.821069 168.7659685 336.4872643)
(1556.869651 -278.5092969 296.9075392)
(1376.513067 -467.9750155 -168.5229933)
(1950.666299 87.05896504 -364.9448434)
(1990.754687 473.1650598 -26.8798854)
(2216.571363 -123.7655735 -28.81716183)
(1995.129381 53.16398971 350.7008451)
(2410.512579 -191.5148309 -75.69500272)
(1950.930786 -269.0601072 173.7848879)
(1819.084516 -607.7043658 236.1507148)
(1752.683487 -434.387318 -199.4135914)
(1739.301099 491.0095407 -103.6501536)
(1731.903991 276.4363946 428.0860057)
(1382.273254 171.2858912 418.670347)
(2218.997003 -311.9480644 -150.3138772)
(1759.680737 -598.1901762 87.22446454)
(1511.901387 -88.40562191 -422.4844476)
(1736.299872 -398.2612292 -17.51365242)
(2043.532646 -527.4476527 344.2163795)
(1528.542201 372.4119939 -162.2086245)
(1803.661555 -351.6412691 289.5741944)
(1757.386855 -79.37796732 -372.9347971)
(2002.523584 344.0802553 57.5971534)
(1901.588972 -189.2586853 310.7214604)
(1665.826571 140.5466612 -546.2157224)
(2252.256445 -269.0762493 -558.5964253)
(1651.701211 -191.5844895 -412.0711524)
(1605.452932 -52.79596555 -55.00599271)
(2257.687443 -360.1380718 -1009.162908)
(2124.898339 -445.4100986 -708.7397148)
(2285.443581 -354.9184802 185.8360486)
(1674.59877 -90.14581304 -428.853281)
(2012.176676 648.4168308 -96.31625865)
(1934.316313 181.904022 461.1298348)
(2688.396624 -29.37080252 -288.9353846)
(1713.705315 -549.8266537 301.1711022)
(1773.881734 108.8324004 118.1929726)
(2074.734267 84.44776036 -246.8705184)
(2243.726873 -75.61350218 -63.81028548)
(1562.860714 -371.3082543 -304.557384)
(1844.295812 226.3759213 -366.7831243)
(1528.743271 -152.9894032 -193.4506137)
(2234.653465 -22.70040149 126.540676)
(2216.03737 -50.14699406 -149.1000768)
(1742.530013 -502.7569273 -89.12988797)
(2160.835473 -249.7959027 -446.3384141)
(1854.468194 268.0249123 247.7161643)
(2129.209295 221.1736494 172.2834969)
(1847.795769 357.2266631 -586.7296993)
(2141.943321 517.6639455 -195.5898326)
(1794.095237 -61.89576562 -258.0830355)
(1558.113657 -44.01241428 118.4496394)
(2350.928651 -149.504782 -226.6971129)
(1714.242652 186.2551182 338.5383151)
(1571.011594 -841.5337288 83.36479875)
(1748.250334 209.808819 18.47990314)
(1744.294298 -10.57384509 -244.3017698)
(1864.942305 -618.3472924 -245.5126143)
(2335.233045 -209.8887648 196.3883113)
(1907.826698 -814.6714132 256.3577356)
(2113.338413 112.8718995 281.7699731)
(2172.465941 -9.573772414 322.8420486)
(1876.450614 -134.7796811 362.7930377)
(2423.045592 -328.0103375 80.32192044)
(1682.070586 -75.14349474 -314.7351828)
(2007.12909 -506.6203851 480.7576197)
(2337.217155 219.4096316 -189.7861827)
(2181.385919 -40.41761406 -113.2337671)
(1808.136806 -223.194182 77.8384343)
(2157.87849 -218.5362497 -348.9002939)
(1784.976061 -178.5372602 128.1901056)
(1682.258665 -85.49798846 -176.6201248)
(2202.865285 -123.0118786 149.5647686)
(1513.181022 62.73112201 -173.0442359)
(1780.758457 -75.28624296 394.9066734)
(2577.366399 774.0052369 40.37905504)
(2043.912084 -285.126072 303.6906877)
(1644.507287 308.2168957 -11.61875561)
(2136.121883 -8.156011098 -266.6128953)
(2391.92046 186.5877588 -43.18372916)
(2105.597963 174.4365968 219.4709568)
(2008.83787 -505.159685 -366.1821285)
(1834.86098 -90.26497982 -218.3706766)
(1438.696169 253.7337507 -93.35345162)
(1896.135054 364.3704604 296.0865311)
(2198.397726 191.4407877 60.29085717)
(2334.217123 -6.712972053 -125.7403276)
(2028.580617 -482.0583844 17.69095462)
(1932.244548 -204.0110467 -323.3952188)
(1327.729959 257.8488986 45.54834702)
(1779.832424 -152.4804462 289.1230562)
(2314.488049 268.4415126 -49.95098619)
(1923.765498 394.2038336 -11.19888636)
(2009.308436 -164.0555109 752.5612889)
(2077.816182 -376.4836073 -54.67812484)
(1259.003535 -49.89945974 156.0065256)
(1803.633966 -118.9104166 282.5151503)
(1914.43201 -141.49616 365.1078971)
(2211.690313 234.5960342 376.0636803)
(2140.25329 -677.9953507 -402.1391242)
(1865.817802 -87.19614921 338.1306555)
(1462.747502 71.60610785 -259.4110292)
(1433.61834 -223.1055327 329.3482566)
(1830.93665 154.8118282 -595.1765719)
(2295.147999 113.6796021 16.37347543)
(2389.388167 -199.8391057 246.5553147)
(1827.879224 -280.4008569 99.03659461)
(1851.090511 -85.1015148 72.86201268)
(1970.569538 242.9642368 -211.7382442)
(2189.177443 -865.932762 -530.6776029)
(2081.20664 168.9604271 263.314011)
(2382.343085 322.0462275 81.65441787)
(1824.286847 184.2496982 -174.5742401)
(1588.04381 517.8069082 -382.7936684)
(1447.037068 -99.80566216 -123.4637275)
(2286.551209 192.1369785 -226.5705393)
(1906.464566 -385.2584273 -94.64891609)
(1980.458589 329.7921489 150.3133067)
(1756.031455 -498.4233503 -40.33057936)
(1922.922118 -325.4553337 -343.1977248)
(1652.816413 207.8994322 -55.13452229)
(1855.904754 289.8152718 42.73394727)
(1991.760713 440.9413134 737.4322238)
(2304.758432 -474.5716955 -291.9239982)
(1847.22578 -264.493445 -300.7982847)
(1194.208973 540.9119436 67.90685413)
(1930.486707 267.4467289 -100.1093709)
(2150.484924 -162.6481741 168.0104366)
(2172.886618 490.6812866 391.4616236)
(2005.1226 66.86635977 -247.9580284)
(2040.119329 109.5026605 72.99997796)
(1703.657183 -407.3937177 484.0737628)
(2024.941724 79.20078935 224.1407251)
(2535.844229 414.7305264 88.08578847)
(1948.171776 -91.93923536 185.2379294)
(2271.476072 -84.48628301 367.8612128)
(2285.973254 102.6746591 -225.8542439)
(1999.040712 290.8801356 -594.742268)
(1919.416655 370.8297145 -761.9401817)
(1597.810039 -170.3462728 106.6850072)
(1821.309961 501.4246544 -577.1427916)
(1706.260553 -259.9437359 -195.7811397)
(1544.128022 445.1362603 -397.2333185)
(1768.441211 42.0461822 538.2171844)
(2029.974176 56.99510252 288.8880548)
(2532.215981 160.9838479 -354.6211607)
(1710.720055 -485.3281976 -578.3739352)
(1978.590333 -261.6799339 -525.9980058)
(1463.475139 -265.3677504 -442.9924202)
(2290.19257 381.4954037 -215.5148138)
(2449.627825 -56.22636298 -211.7156095)
(2062.345112 -16.93553304 126.3602738)
(1744.408965 18.35568706 -36.1377577)
(1435.933011 159.8227299 -165.648806)
(2338.994646 389.3190751 -254.5938215)
(2086.785577 -624.2719567 -848.9879791)
(1657.628999 245.7128502 341.0240234)
(2037.833621 -124.4321688 507.1612285)
(1615.000441 4.568542747 -277.2281505)
(1855.378219 -146.9364068 111.5562738)
(1611.324292 -548.2382506 83.1392883)
(1747.661925 -448.4369785 265.4844585)
(1919.920589 296.4672063 -166.3216681)
(2183.856995 -108.8618359 -349.8776399)
(2265.537541 -53.40616141 -176.1221236)
(1868.494217 452.0780182 411.2667748)
(2365.107501 191.5405887 -22.99793704)
(1864.289485 -265.1324704 228.2688428)
(2138.662727 -94.99746419 -145.5670577)
(1793.52469 109.1838085 448.2839116)
(2178.01813 -51.24848009 -8.885731616)
(1812.029013 -152.1480694 66.14215229)
(1999.461924 -77.0856427 -496.6609412)
(1840.811767 -299.2031545 8.002696402)
(2086.505493 -380.5084507 217.148015)
(2015.435429 -343.4993125 -77.13478727)
(2047.225528 -405.5383798 281.2910159)
(2092.96553 -379.0047547 -146.6423472)
(2176.614329 -633.6402097 -384.8036543)
(2556.826668 -304.3137821 24.95111896)
(1899.454914 -36.61948143 -143.3241548)
(2176.63644 -138.47157 -334.0213784)
(1758.870893 -46.44897173 992.6252054)
(1885.412915 151.2598956 -280.1525483)
(2415.972752 -162.081122 200.6547646)
(1992.044628 -373.0669858 -192.6771113)
(1614.313533 -113.6111687 -510.6350348)
(2083.253913 150.104516 172.3952627)
(1714.963254 -185.0023222 362.9365104)
(1763.767788 -245.7909938 9.421542863)
(1395.72055 67.36021172 244.046686)
(2140.644074 315.9671146 -294.9136505)
(1786.800434 -275.7905474 -43.4264825)
(2451.256754 -173.2654267 -77.92754132)
(2403.51065 -82.38995683 180.4496857)
(2117.951742 208.9800218 594.7701567)
(1951.831421 -515.69104 -390.1961511)
(1735.275006 -200.7609141 -170.1876443)
(1984.083061 -234.9568914 30.93751244)
(1915.059169 269.9266793 49.31171514)
(1605.336388 106.4969501 404.6369517)
(1924.799765 -115.8326145 129.4985189)
(1675.193711 409.0371894 -235.6558779)
(1950.19409 -276.7162578 291.29181)
(1867.996225 -278.1280238 -105.5480967)
(1625.383357 199.0205581 -185.0424949)
(2037.947955 190.0673123 299.3762534)
(1419.719899 -143.8073828 -147.886403)
(1599.258069 -535.2851169 -335.937421)
(1859.91749 -79.60529515 139.3559546)
(2184.727412 125.2976028 428.3184417)
(1976.375249 -75.49055148 81.14952847)
(1943.644502 607.8541894 -679.4256773)
(2212.429874 -103.0942104 -659.2434898)
(1848.229273 429.8644186 218.13795)
(1906.806538 -315.1392143 -79.62741303)
(1638.794438 543.2039626 700.4966031)
(1891.005787 -27.68297456 146.5517004)
(2000.414482 92.72843895 1.828313735)
(1715.838751 173.1145932 -269.521067)
(1701.017996 383.1404711 402.5406493)
(2069.811372 152.715662 -64.04309473)
(1700.555721 49.37383994 -321.6309982)
(1690.51025 355.9285374 201.5776376)
(1818.138165 -51.28748617 136.6044545)
(1896.524664 601.9273071 157.9267476)
(1824.754984 414.8696455 11.0236938)
(1742.348102 79.48110286 -133.9790961)