/*--------------------------------*- C++ -*----------------------------------*\
| =========                 |                                                 |
| \\      /  F ield         | OpenFOAM: The Open Source CFD Toolbox           |
|  \\    /   O peration     | Version:  2.4.0-MNF                             |
|   \\  /    A nd           | Web:      www.OpenFOAM.org                      |
|    \\/     M anipulation  |                                                 |
\*---------------------------------------------------------------------------*/
FoamFile
{
    version     2.0;
    format      ascii;
    class       scalarField;
    location    "0.0009/lagrangian/dsmc";
    object      ERot;
}
// * * * * * * * * * * * * * * * * * * * * * * * * * * * * * * * * * * * * * //


64126
(
1.77711797e-21
1.082868238e-21
4.45451256e-22
3.863845572e-21
1.24080808e-21
1.596995746e-21
6.030957104e-21
4.675071986e-21
3.25982773e-21
1.371655243e-21
1.538253528e-21
5.990050986e-21
2.327783884e-21
4.54600897e-22
1.429355578e-20
2.559379016e-21
1.170929484e-21
3.924252083e-21
3.203543125e-23
4.343511885e-21
1.018186414e-20
3.049683883e-21
9.636378393e-21
4.018811268e-22
1.316042759e-21
9.805757868e-22
7.379315387e-21
1.932145045e-21
1.251761447e-21
3.450010692e-22
2.293500678e-21
2.315492869e-22
1.688611568e-21
1.009959112e-22
1.395813845e-20
9.546277499e-22
2.648244379e-21
5.356742533e-21
4.708992176e-21
8.384890146e-21
8.911626789e-22
2.215202087e-21
1.453396664e-21
1.630274004e-22
6.040630783e-21
4.424697802e-21
1.453416704e-22
1.148754048e-20
1.018361958e-21
1.654005782e-21
1.629813282e-22
4.300255649e-21
4.857068999e-21
6.028513855e-23
1.012923256e-20
3.56064939e-21
4.187951121e-21
5.041532807e-21
6.603330912e-22
3.888174834e-21
2.385607931e-21
1.127792894e-21
3.387542971e-21
1.470042422e-20
7.21156057e-23
2.204587389e-22
3.841081463e-21
5.653692874e-21
4.532222213e-21
3.386781358e-21
2.70809472e-21
4.146518288e-21
2.323602791e-22
1.225357488e-21
1.108522476e-20
8.327018869e-22
4.693930509e-21
1.211212776e-21
1.443452564e-21
9.610075328e-21
1.153404601e-21
1.018591735e-21
4.746615535e-21
1.435197819e-20
4.78684289e-21
9.812201429e-22
3.591864602e-21
8.874313067e-21
1.277155112e-20
2.801469258e-21
7.292758119e-21
1.117834329e-21
6.905968491e-21
3.055398656e-21
1.176074141e-21
4.814721096e-21
7.563575502e-22
4.23230177e-21
8.391314624e-22
5.008622996e-21
1.358786809e-20
3.161787989e-22
7.788861882e-21
5.794111786e-21
7.279987693e-21
5.060339592e-21
1.523986228e-21
4.1406471e-22
1.462338512e-21
3.258936856e-21
1.322434794e-22
1.166147401e-21
1.075957319e-20
4.941105711e-21
3.806300053e-21
6.104995709e-22
1.602528967e-21
9.296949158e-22
2.280629754e-21
2.854839425e-21
1.248249021e-21
4.65337668e-21
3.288275245e-21
1.019115893e-21
9.127300243e-22
4.446021198e-21
2.114959712e-21
8.783208044e-22
5.104334114e-21
5.882248878e-21
1.843921882e-21
8.750481965e-21
1.868706806e-21
1.004888955e-20
3.375329989e-21
2.625531495e-21
5.788104356e-21
7.088342939e-21
1.748822286e-21
1.033874842e-20
3.912649102e-21
4.617167766e-22
2.887430176e-20
3.71123352e-21
6.861154082e-21
8.307895204e-23
7.095320539e-21
3.123318074e-23
3.117576264e-21
3.885252346e-22
8.651628611e-22
8.374638496e-21
2.04032996e-21
2.883080766e-23
6.730076444e-21
2.730677968e-21
3.528449695e-21
4.21665921e-21
1.632716252e-21
4.363209441e-22
3.911438584e-22
1.106730532e-21
1.130493872e-21
8.927654636e-22
4.166065821e-21
8.151804113e-22
4.581629532e-21
3.192300054e-21
4.693401306e-21
4.681095924e-21
3.048422403e-21
2.039323966e-21
4.193451792e-21
2.097992055e-21
1.379266311e-21
3.662456465e-22
1.270883459e-21
1.019098654e-20
5.5564748e-21
6.865711437e-21
8.383141381e-22
1.139648968e-21
3.526023265e-21
2.306943481e-21
2.576973295e-21
7.267369133e-22
1.757115757e-22
4.225233782e-22
1.950830377e-21
6.24968885e-22
5.85989996e-21
2.994180802e-21
1.384535072e-21
1.83843458e-21
1.228701515e-21
5.577658703e-21
7.079840649e-22
5.754682215e-21
6.584859561e-21
5.429284841e-21
4.322858487e-21
7.741768089e-21
2.858642646e-21
2.483241791e-20
1.419868435e-20
4.744909142e-21
2.54808341e-21
1.398936164e-20
4.768812944e-21
7.778471368e-21
2.736017146e-21
2.509191276e-21
4.659678822e-21
2.266176358e-21
9.087430618e-22
2.295058798e-21
1.117050804e-22
3.361839548e-21
2.172350034e-21
2.539260663e-23
9.121292796e-21
9.197963793e-22
2.307156322e-21
2.266622719e-20
2.423400617e-22
9.723892579e-21
4.103741468e-22
1.357244891e-21
4.244259757e-21
1.569247188e-21
3.174919128e-21
2.278807854e-21
1.896364318e-21
3.98836936e-21
1.317240737e-21
5.320153855e-21
5.187705092e-21
2.438663525e-21
7.335951627e-23
5.366291576e-21
5.4660951e-21
1.033982871e-20
4.901124775e-22
2.492328361e-21
6.354880192e-21
4.16117617e-21
6.232198135e-22
4.663158068e-21
3.272147517e-21
2.759647941e-21
1.661544555e-22
5.354952934e-22
1.206517028e-20
3.81991168e-21
2.825704462e-21
8.043713209e-22
3.1628365e-21
4.870130567e-21
7.392297286e-21
3.593465327e-21
3.101317469e-22
4.149157312e-21
2.733653145e-22
2.779469917e-21
1.7020801e-21
1.378677545e-23
5.424775864e-21
4.757961051e-21
2.909457334e-21
1.048533961e-20
2.044939278e-21
1.198862938e-22
3.220989414e-22
3.700114723e-21
1.282052836e-21
7.437937195e-22
1.538593987e-21
2.706920301e-21
1.784703945e-20
3.252301325e-21
2.53250608e-21
1.525327596e-21
1.46179286e-21
1.64069342e-21
6.309559877e-21
2.163591405e-21
2.999841785e-21
1.019192471e-20
4.348922014e-21
1.329336894e-21
8.804618088e-22
6.855514554e-22
6.319568554e-21
1.953648244e-21
8.717302499e-22
2.564986223e-21
5.238323254e-21
1.405999501e-20
4.129923067e-22
3.383417167e-21
6.543524119e-22
4.527595709e-21
1.064250364e-21
3.132354704e-21
2.688476863e-21
4.834834707e-22
8.07029613e-21
4.309178057e-21
1.555814512e-22
2.137324177e-21
5.36854161e-21
3.550801693e-21
8.293932739e-21
7.568409244e-21
1.284603878e-21
8.080122198e-21
5.22182479e-21
5.558216741e-22
1.68666769e-21
7.816899303e-22
7.592616021e-21
1.42862028e-20
5.398511937e-21
3.25205941e-21
3.170693193e-21
2.727299967e-21
6.775950465e-21
2.150555612e-22
7.759916607e-22
1.101913739e-21
3.220704587e-21
1.685881872e-20
5.015730851e-22
2.931858786e-21
1.298871775e-20
3.679811988e-21
1.796837224e-21
7.953837273e-21
9.468085515e-21
2.651527277e-22
1.619748748e-21
1.793170879e-21
1.0116449e-21
4.713003071e-21
1.405360774e-20
3.428545966e-22
7.970947345e-21
1.953585835e-21
3.590116224e-21
1.334713093e-21
2.736808644e-21
1.019622892e-21
1.393301354e-21
7.579998028e-22
1.01705596e-21
3.192907014e-22
2.466838927e-21
1.981501303e-21
2.015977523e-20
6.723545113e-22
2.907518926e-21
1.587061968e-21
2.927576322e-21
3.188237219e-22
2.792559296e-21
4.366051088e-21
3.167388587e-22
4.526896927e-21
9.426265128e-21
2.13276174e-22
1.523431735e-20
5.232920824e-22
4.93155933e-21
1.926400946e-20
1.665909137e-21
5.591856755e-21
1.218061343e-21
4.530701976e-21
1.217900322e-20
2.937520495e-21
3.903554905e-21
6.318714358e-21
1.199231864e-21
1.416097289e-20
4.393269252e-21
3.799875167e-21
2.31358571e-21
5.336902386e-21
1.076003017e-20
7.334823671e-21
4.964699512e-21
3.008918005e-21
5.713994813e-21
9.009973852e-21
7.123731155e-22
1.293863276e-21
2.656798504e-21
5.317842616e-23
7.843632464e-21
3.638489866e-21
4.158264691e-21
2.740690249e-22
3.384235288e-22
9.285602975e-21
6.940693352e-22
7.970850714e-22
1.759876238e-21
4.859746301e-21
6.088046845e-21
4.16118199e-21
7.755429817e-21
1.841276842e-21
9.300966364e-22
1.10603054e-21
4.263028323e-21
3.635953721e-21
5.316427864e-21
3.568034302e-22
1.629119733e-22
3.212040186e-21
5.033756425e-21
1.607814984e-20
8.035557494e-22
2.792276176e-21
8.671880695e-21
3.314716636e-21
3.580130634e-22
3.825496674e-22
1.433840368e-20
4.867883924e-21
1.6285163e-21
1.618507543e-21
2.97806453e-21
2.269003807e-21
4.379331478e-21
9.864569429e-21
4.030229663e-21
6.199314923e-22
7.357140431e-23
9.52110375e-22
9.492947514e-22
2.530829661e-21
1.261090131e-21
3.309556741e-21
1.747466991e-22
7.245251292e-22
1.265157857e-21
4.724329787e-21
9.488757534e-21
2.427402651e-21
4.596297277e-21
2.902403242e-21
2.812557121e-21
6.846665924e-21
1.159005788e-21
5.360859748e-21
3.493938103e-21
7.430973085e-21
2.207291498e-21
1.126334143e-20
3.376442318e-21
5.864776075e-21
3.784782107e-23
4.692288825e-21
1.346695798e-21
3.481531604e-21
3.515443025e-21
9.475614776e-23
2.368272767e-21
3.30453283e-22
7.95503456e-22
6.078900058e-21
1.512556137e-21
1.665313844e-22
1.015728238e-21
3.810458893e-21
7.218014132e-21
3.291444864e-21
2.881261113e-21
5.403774234e-21
1.607568415e-21
4.96469007e-22
1.791963025e-21
9.333976543e-21
8.882269349e-21
2.746227428e-21
5.910951285e-21
8.122748652e-22
6.63962184e-23
1.433836512e-22
1.110275227e-20
4.793476104e-21
5.785358709e-22
7.153667528e-21
8.697579522e-21
1.42818329e-20
1.641089222e-21
4.98266273e-21
1.885312509e-21
5.812025866e-21
7.543948397e-22
5.264923022e-21
3.418300523e-21
4.278047125e-21
2.04136363e-21
1.94765743e-21
7.275415391e-21
3.291998003e-22
5.398203061e-21
7.033476896e-21
8.545377849e-21
1.599006339e-20
2.452205226e-21
5.202253638e-23
6.746508422e-21
1.997625958e-20
2.841298729e-23
5.896758898e-21
3.909058045e-22
2.131141262e-21
3.44783713e-21
1.663843153e-21
4.931946302e-21
2.070948198e-21
1.490160778e-20
6.269982268e-21
2.743607816e-21
6.055761861e-21
4.768265856e-22
8.736327211e-21
8.998176848e-25
1.170506809e-21
2.579136253e-21
1.259752786e-22
1.917169256e-21
5.117186339e-21
7.439430508e-21
6.438420633e-21
2.756894045e-21
5.534720074e-22
4.908984582e-21
2.820558329e-21
5.346681344e-22
1.487866782e-20
5.199030096e-21
5.723900239e-21
2.05525458e-21
2.908708962e-21
1.112946337e-21
6.740790828e-21
6.52349532e-21
3.78573547e-21
1.657517247e-20
5.110518873e-21
1.630555903e-21
4.33147146e-21
1.176202965e-21
3.050927832e-21
5.141341616e-21
2.974522545e-21
4.110086712e-21
1.68459335e-21
7.713510627e-21
9.714851147e-22
1.517905661e-20
1.91556113e-20
2.757868155e-21
5.204817049e-21
3.493197691e-21
8.892840735e-21
2.345593216e-21
2.92050797e-21
4.046276739e-22
3.658059328e-21
1.025760122e-20
3.721642612e-21
1.215448432e-20
3.421979697e-21
2.189963528e-22
8.693745686e-21
1.097295553e-21
1.145564514e-20
1.941688069e-21
4.418282983e-21
2.258004719e-21
1.093119903e-20
9.010445558e-21
3.454599531e-22
7.052305721e-21
7.511297549e-21
1.860946328e-21
1.312017305e-21
8.313208585e-22
7.732282781e-21
2.081637379e-21
1.781931093e-21
6.20666016e-22
5.007691825e-21
4.873505805e-23
1.754689636e-21
9.873394004e-21
3.170749056e-21
8.913498584e-22
2.02225853e-21
5.811855998e-21
9.256971047e-21
4.640795157e-21
5.951021809e-22
3.786163545e-21
8.543759067e-22
5.382255772e-22
1.460437675e-21
4.402702319e-21
1.505355402e-21
3.301822219e-21
7.593025021e-21
5.36978688e-22
1.810746882e-22
9.791676885e-21
1.109444888e-22
1.050554536e-21
3.837920101e-21
4.986189184e-21
4.872620699e-22
1.3616787e-21
1.716748452e-22
5.613550988e-21
6.389177748e-21
3.170766886e-22
8.684112515e-21
3.926965048e-21
2.281041465e-21
1.472628896e-21
1.943669868e-22
3.434729068e-21
6.002964098e-22
2.210284693e-21
1.787644728e-21
1.331798876e-21
6.734497828e-21
1.023569756e-20
7.289213973e-21
1.208747377e-20
7.601055158e-21
5.476549258e-21
7.053447954e-21
1.517274809e-21
1.166213821e-21
6.82163992e-22
2.889340303e-22
8.936089243e-21
5.755999417e-21
4.203449527e-21
4.569901437e-23
8.565596417e-22
1.676930942e-21
8.668091161e-22
6.011609691e-21
7.196498231e-21
7.462690292e-21
1.379049143e-21
8.683058941e-21
6.949297287e-21
2.713434032e-21
1.114795141e-20
7.407418884e-22
1.297575067e-20
1.639447283e-21
1.962166227e-21
3.917800143e-21
3.544498351e-21
1.994238932e-21
9.123606709e-22
7.283393622e-21
2.716880928e-21
5.271662716e-21
1.200774506e-21
3.139684937e-21
3.185579188e-21
3.838863231e-21
5.251500011e-21
8.187069599e-22
1.744601288e-21
4.935173302e-21
1.670836872e-21
1.346495431e-21
6.641727682e-22
7.196634793e-21
1.964181773e-21
2.003500939e-21
1.947127184e-21
6.834119547e-22
3.744336886e-21
3.510185174e-21
5.214132241e-21
1.208507829e-20
2.282799571e-21
2.810240498e-21
2.05013394e-20
5.841955877e-21
1.08891601e-20
7.845584353e-21
1.98320419e-21
1.535437304e-21
2.107868317e-21
5.890298917e-21
6.653450372e-21
7.106858129e-21
1.411196282e-20
2.608512651e-21
1.589692002e-21
1.632478062e-21
5.040785489e-21
4.36291898e-22
9.748401713e-22
5.756392773e-23
5.947652921e-21
1.004121491e-22
7.606832015e-21
2.630935594e-22
1.5299241e-21
5.930844286e-21
7.347862537e-21
2.542311007e-21
2.105359078e-21
3.497533722e-21
1.478998663e-20
1.789268242e-21
3.248736982e-21
1.129753599e-20
5.747735554e-21
4.190881065e-21
2.440762059e-21
2.969337454e-21
1.407199462e-20
2.798858634e-21
7.953988432e-21
4.53347305e-22
2.231504024e-21
3.45791823e-21
1.283979056e-21
1.292038238e-21
3.353629058e-21
3.838475722e-21
4.00966587e-21
2.898845599e-21
9.138339533e-22
3.469558743e-21
2.549418349e-22
3.176358675e-21
3.144527822e-21
1.49943583e-22
5.091542238e-22
3.450698073e-22
1.236309178e-21
3.157273303e-21
9.172369889e-22
7.967562913e-21
7.327557373e-21
3.927965709e-21
3.809878452e-21
9.677845196e-21
2.233721235e-21
4.494316562e-21
1.367460383e-20
4.881103786e-21
7.509170488e-22
1.927027066e-20
8.865013882e-22
1.193211074e-21
1.963922429e-21
3.630554528e-21
2.858320838e-21
4.347990805e-22
3.233276271e-21
1.176944232e-20
3.755918554e-21
3.388641373e-21
6.726762271e-22
1.926566736e-21
2.5696746e-21
2.965568541e-22
4.107857505e-21
1.439061993e-21
9.485269457e-22
2.813229293e-21
1.740399299e-21
1.42854766e-21
1.318228703e-21
2.578255426e-21
6.111796144e-22
7.015766491e-21
1.863440549e-21
7.773977074e-22
3.769004272e-21
1.835095129e-21
9.248836252e-22
1.495121747e-21
3.017124341e-21
8.903731702e-23
7.106811002e-21
3.276979746e-21
7.302332587e-21
2.069882014e-20
2.734567961e-21
2.534784769e-21
5.807134777e-21
2.555394695e-22
1.538790943e-21
4.918259147e-21
2.957118652e-21
2.799104195e-21
3.369106709e-21
3.217077205e-21
5.43675642e-22
1.042379621e-20
4.919253874e-21
9.20481525e-21
1.488817121e-21
8.554547165e-21
4.56880893e-21
2.120740436e-21
4.804561323e-21
2.992071633e-21
2.925342023e-21
9.727449261e-21
1.106903944e-21
1.934396051e-20
1.330857563e-21
1.586266168e-20
1.089646964e-21
1.105700174e-20
7.794422536e-21
1.92220981e-21
3.81797937e-22
2.050287035e-21
3.794676231e-21
1.594799215e-20
8.159457495e-21
1.049319697e-21
8.530806056e-22
5.511305543e-22
3.201942211e-22
9.587991833e-21
3.246900718e-21
4.537654045e-21
1.49201066e-21
4.226235019e-21
8.805769054e-21
2.92349663e-21
8.090210611e-22
1.474633151e-22
2.649043632e-22
2.658794056e-22
3.98135183e-21
7.924027086e-21
1.571802807e-21
1.168790525e-21
9.362478758e-21
1.599388924e-20
4.683663157e-21
3.073156775e-21
1.402221894e-20
3.224408762e-21
1.35400689e-20
2.992070505e-21
8.831742721e-21
1.267284969e-21
5.997587143e-21
1.928455943e-21
1.174006772e-20
2.585923389e-21
8.581026639e-21
3.738424665e-22
1.072214654e-20
7.026144618e-21
2.891359753e-21
1.908987174e-21
6.844047147e-21
2.865035616e-21
1.281125945e-21
1.27783434e-21
3.542857063e-21
6.806183174e-21
6.60785065e-21
7.081535585e-22
7.231012552e-21
2.985756838e-21
4.281546753e-21
5.256563022e-21
9.4349469e-21
5.845028956e-21
1.668981755e-21
3.168878287e-21
6.590453349e-21
1.208528036e-20
3.842818081e-22
2.683643655e-21
1.452354165e-21
5.969182424e-22
1.083732717e-20
2.506568161e-21
2.415547414e-22
1.356261974e-21
2.968527341e-21
2.733608065e-21
3.830402187e-21
1.091662542e-20
1.805405205e-21
6.808170845e-21
5.007056575e-22
2.38572787e-21
1.371063545e-21
3.420671329e-21
3.943560098e-21
8.305717755e-22
8.242787176e-21
9.02622614e-22
1.235730146e-20
1.399515998e-21
6.272551133e-23
8.771850385e-22
4.578588939e-21
1.262240602e-20
2.014929529e-21
7.545000377e-21
4.386898654e-21
3.834010436e-21
2.911423729e-21
1.06106754e-21
9.808712891e-21
4.22116791e-21
1.10706062e-21
8.368901673e-22
6.608181071e-21
1.343055259e-22
7.781577229e-23
4.223960237e-21
4.717564492e-21
1.601893899e-21
5.694373432e-21
7.78316567e-21
1.684901817e-21
2.31487134e-21
7.151140023e-21
9.586702172e-21
3.533862432e-21
4.345470934e-21
8.483829618e-21
3.355540934e-21
6.583866073e-21
2.751619322e-22
5.016250743e-21
5.528501024e-21
7.887294152e-21
4.312974447e-21
1.799262327e-21
6.548061133e-21
1.807067406e-21
8.212454842e-22
3.673279916e-22
1.22273072e-21
1.141322332e-21
1.633048138e-21
8.397546239e-22
7.372438776e-21
1.567011917e-21
3.863017596e-21
1.553999521e-20
3.497761159e-21
6.531818263e-21
4.378748007e-21
2.325396341e-20
4.570261246e-21
2.620271372e-21
2.626248976e-21
5.508442432e-21
4.89870534e-21
1.210294986e-23
8.604265576e-21
2.290778614e-22
2.793637678e-22
4.544246576e-21
8.291427882e-23
6.524936494e-21
2.268485316e-21
4.626970984e-21
2.104323745e-21
4.946321119e-21
9.282075205e-22
9.521284618e-21
3.345558185e-21
2.027881911e-21
1.032851857e-20
7.512299475e-21
9.402773863e-21
2.834119623e-22
1.12368357e-20
1.582724967e-20
2.630574883e-21
3.589264194e-22
1.12307302e-20
1.676605314e-21
1.127393512e-21
6.042382417e-22
1.79998514e-20
4.789983004e-21
1.394981911e-20
7.765588837e-21
2.121856098e-21
2.854993382e-21
4.175837717e-21
1.780551614e-20
4.946639027e-21
7.823743581e-22
4.236315158e-21
3.347647787e-21
2.024959872e-22
1.91192852e-21
3.922487594e-22
5.46677359e-23
7.527974448e-21
4.392286459e-21
5.901133295e-22
6.307219439e-22
4.270200797e-22
6.433125493e-21
7.403347853e-21
5.240343611e-21
9.353218003e-22
1.822329268e-21
1.643357233e-21
1.51446716e-21
2.94885434e-21
1.212841447e-21
6.254051122e-21
3.148968144e-23
5.344299778e-21
2.032874695e-21
2.187109943e-21
4.639463278e-21
1.080962968e-20
1.710885076e-21
3.754351431e-21
1.098968294e-20
3.00720162e-21
9.627435314e-22
3.565094541e-23
7.775451881e-21
2.832846175e-22
2.333092055e-20
1.003971547e-22
1.265324544e-21
1.990150367e-21
1.406519557e-21
2.18870186e-22
1.351028751e-21
2.971139254e-23
1.97751462e-21
4.342690862e-21
1.097503258e-21
6.24480528e-21
2.256615485e-21
3.779890473e-21
4.361716138e-21
9.878239334e-21
1.0201354e-21
1.040949704e-21
4.804920258e-21
4.17323494e-21
8.290995066e-21
2.018776053e-21
1.239188409e-21
2.430830681e-22
5.229872771e-21
7.283551337e-21
2.957691136e-21
1.085245728e-21
2.204497908e-21
6.508779066e-21
8.814611116e-22
7.485171811e-23
5.638232484e-21
4.136718966e-22
6.733676014e-22
6.194701531e-22
6.842515779e-21
2.110570406e-21
4.955731557e-21
3.966409458e-22
1.376454578e-21
1.361521352e-21
4.989680984e-21
3.969337502e-21
1.114529941e-21
1.720226698e-21
5.071794506e-21
2.693250305e-21
3.522564217e-21
1.640724174e-22
2.221698008e-21
1.396259722e-21
4.718958002e-21
8.071176086e-21
8.926772356e-21
5.69855059e-21
1.643227642e-21
1.401637158e-20
8.911453275e-21
3.944309627e-21
3.546676945e-21
3.916987663e-21
3.67616369e-21
1.540941775e-21
1.853151691e-21
3.922753585e-21
4.27812727e-24
3.59709333e-21
3.398523328e-21
1.852272368e-20
4.478636881e-21
8.224326687e-21
6.558787303e-21
9.666043519e-23
7.168212276e-21
1.239421401e-20
2.772992533e-22
1.771730386e-21
2.549092098e-21
3.960143693e-22
4.196252449e-21
2.429809595e-21
1.342868098e-20
8.827639534e-22
2.17023303e-21
9.265401037e-21
1.629325664e-21
1.963113928e-21
4.475797317e-22
9.512524489e-21
2.715990889e-21
6.947262757e-22
4.867316105e-21
2.146115647e-21
8.978818446e-21
1.911596151e-21
1.215171823e-20
4.839827053e-22
1.011711407e-21
7.340548412e-21
1.235732156e-21
1.275209209e-20
1.067102612e-20
1.402717005e-21
2.119938771e-21
4.033009659e-22
3.784613333e-21
3.078129018e-21
5.555378833e-21
2.006652972e-21
1.925159782e-21
3.415317336e-22
2.989983535e-21
1.852719881e-21
2.309727575e-22
5.216030114e-21
5.369615589e-24
1.338016562e-21
2.344093082e-22
6.65693851e-21
2.468867176e-21
2.883382706e-21
1.00692134e-21
3.797222629e-21
1.42159411e-22
2.779736033e-21
4.841740247e-21
3.982822918e-21
6.885872805e-21
1.65679115e-21
6.671880314e-21
2.75021777e-21
7.709925299e-22
8.274654327e-22
9.528382392e-22
2.252064144e-21
2.114342178e-21
2.105226389e-20
6.351517653e-21
4.052229639e-21
3.396821707e-21
5.373140014e-21
7.748073192e-21
1.356060606e-20
8.44255757e-21
8.831323892e-22
2.591259009e-21
5.007923607e-22
6.189662091e-22
5.280364103e-21
1.728321089e-21
2.974296569e-21
2.351439488e-21
1.933827351e-21
4.569907979e-21
6.634868034e-21
3.754594762e-21
4.144948001e-21
1.241244916e-20
4.33876413e-21
4.835400966e-21
2.705671342e-21
2.36097662e-22
1.258479178e-21
4.428746106e-21
5.290465721e-22
1.037267193e-21
5.95370493e-21
5.995458598e-21
4.474282571e-21
5.455477709e-22
7.954943818e-22
9.889340187e-21
1.79532171e-22
8.742857833e-22
3.371676851e-21
6.762113671e-22
4.951214709e-21
2.137860368e-21
4.308957177e-22
1.350035054e-21
3.976668373e-21
2.398508648e-21
7.057508026e-22
4.356161132e-21
9.74629589e-22
2.464117979e-22
2.156427064e-21
4.386394945e-22
5.200991307e-21
5.542188911e-21
1.43932121e-21
3.07793244e-22
2.567297664e-21
9.631961431e-21
7.359125607e-21
9.571484824e-22
2.704039589e-21
3.960744722e-21
8.226755606e-21
4.744353829e-21
1.622414098e-21
3.299454661e-22
7.179649822e-21
7.230927694e-21
5.400091559e-21
5.139157755e-21
8.940853525e-21
6.619155508e-21
8.996927585e-22
7.374613795e-24
8.710873547e-21
1.07760871e-22
2.294916508e-21
1.227261382e-20
5.949416407e-22
3.593845864e-21
1.225137165e-21
3.205175724e-21
7.880535107e-21
2.414948849e-21
6.86383542e-21
1.356805149e-20
7.680116475e-22
6.55484601e-22
2.739257781e-21
2.781228952e-21
2.351322428e-21
2.923283791e-21
1.434964705e-21
2.2122638e-21
2.451781166e-21
1.538841573e-21
1.482821759e-21
2.472786417e-21
2.740503245e-22
4.119362677e-21
1.479355012e-20
1.50002489e-21
3.188133576e-21
9.688353101e-22
1.326366183e-20
3.338691135e-21
3.670764669e-21
1.599355507e-21
1.022048917e-20
2.348029695e-21
5.769450238e-22
5.093973338e-21
1.574012944e-20
2.311407116e-21
4.802022631e-22
1.44893026e-22
3.681939179e-21
8.255562275e-23
2.889101585e-21
1.719565765e-21
9.772198699e-22
2.860949196e-21
1.329403879e-21
1.108701152e-21
4.780506808e-21
2.604870222e-21
5.725161258e-21
1.109062992e-20
8.728663872e-21
2.915827867e-21
1.28214997e-21
2.217708297e-21
1.178546896e-21
5.427068479e-21
6.779403046e-21
3.336441101e-21
6.016445758e-22
5.4142461e-21
1.122027365e-20
2.021368373e-20
5.077750692e-21
2.232754111e-21
4.025787699e-21
3.102678864e-21
1.490859466e-22
2.039446004e-21
2.816420674e-21
2.681688589e-21
2.264589096e-21
8.510412817e-21
1.352251071e-21
6.851411658e-22
1.149168594e-21
2.946022625e-21
1.12527117e-21
4.226397801e-21
7.624563872e-21
1.386525679e-21
6.279238311e-22
1.490254892e-20
1.4173727e-21
1.147411636e-20
1.831970791e-21
1.45336439e-21
4.149402546e-21
7.329649734e-21
1.889332124e-21
3.343728202e-21
1.329380591e-21
2.930094135e-21
2.564378607e-21
6.895175791e-21
1.5452168e-21
3.557635118e-21
1.404560754e-21
1.055036656e-21
6.137898948e-21
5.335869305e-22
6.835673637e-22
1.139013751e-21
1.647406158e-21
1.043307739e-22
1.152518561e-21
4.149677951e-21
5.05981166e-21
5.92263935e-22
7.492133212e-21
5.292143622e-22
3.446423315e-21
3.884074481e-21
7.962675116e-21
1.217501412e-21
3.876006858e-21
2.906371964e-21
2.191598082e-21
3.007377806e-21
3.219628628e-21
6.183499293e-21
4.379936981e-21
2.705723167e-21
8.373487645e-21
1.272779672e-21
3.439506768e-21
1.604763745e-21
1.293262669e-21
1.926036391e-21
6.046003066e-21
6.463108417e-21
2.924517893e-21
1.545218896e-20
5.868684215e-21
8.826237592e-21
6.693877203e-22
2.086053068e-21
4.894064209e-21
4.520500612e-22
2.908299409e-21
4.647236961e-21
5.095479696e-23
1.339180088e-21
7.005598422e-21
1.234850888e-20
4.609034295e-22
4.546644418e-22
5.524525043e-21
6.445769764e-22
4.432419287e-21
1.077287745e-20
3.018404953e-22
1.515877269e-21
9.660667274e-21
4.846859113e-22
4.943029025e-21
7.154841099e-21
5.061300819e-21
5.634136654e-21
1.619852895e-21
3.954544468e-21
1.999618585e-21
8.622888786e-22
1.836895723e-21
4.077451319e-22
1.211344862e-22
7.831966268e-22
1.95166112e-21
3.683354324e-21
1.608486561e-21
2.363671002e-21
5.224544715e-21
9.545504088e-24
3.302395863e-21
1.158099171e-20
3.289605073e-21
4.85307602e-21
1.628318562e-21
2.591770253e-22
2.369922193e-21
2.236349481e-22
2.499993469e-21
8.80844416e-22
2.821592615e-23
2.914088686e-22
6.017574666e-22
6.068736053e-21
3.744533312e-21
1.445374219e-20
1.134320462e-20
7.180649613e-21
5.491080249e-22
1.017405471e-22
8.209359626e-22
1.992655227e-21
1.698022935e-21
1.538776518e-21
9.974996692e-22
1.236213673e-20
1.896663249e-21
1.443773096e-21
2.561213452e-21
6.98272427e-22
1.59929001e-21
9.053289733e-21
1.696371389e-21
2.801148163e-21
5.29833832e-21
1.993053693e-21
2.648875745e-21
4.016201824e-21
3.897168389e-21
1.092521364e-22
5.577719051e-21
7.929978917e-22
3.645838694e-21
4.878424116e-21
7.881894436e-21
7.778044387e-22
7.710600992e-21
1.272526889e-20
4.743273092e-22
4.435428347e-21
2.640285665e-21
6.045985943e-21
5.073712621e-22
1.048651048e-20
6.293660007e-22
5.873510213e-21
4.753147946e-21
2.385571041e-21
4.937309684e-21
9.937991799e-23
2.571433959e-21
5.072789749e-21
1.520218341e-22
3.19709555e-21
1.879741232e-21
8.499192711e-22
1.339636323e-22
2.54592964e-20
9.25522566e-22
6.897831643e-21
1.662963416e-21
4.726818893e-22
3.724794118e-22
2.207413231e-21
4.052127058e-21
8.858735643e-21
7.539071786e-22
9.437539755e-22
1.035332474e-21
2.838660061e-22
5.217570046e-21
3.08996433e-21
6.000638896e-21
4.186035699e-21
5.120960974e-22
2.332886611e-21
5.195920661e-21
8.083966758e-22
8.454856452e-21
9.391911954e-21
1.716007179e-20
1.657735687e-21
2.230604725e-21
2.971566824e-21
2.450026915e-22
8.165484219e-21
7.571084688e-22
1.24302723e-21
7.955974565e-22
7.890170413e-22
3.340973756e-22
1.478234739e-21
7.516678684e-21
5.897265758e-21
4.835041602e-22
8.44342857e-21
8.004335873e-23
3.973109073e-21
3.193120766e-21
6.616476827e-21
2.019546894e-21
1.645124982e-21
2.306173676e-21
1.287006002e-22
1.296754341e-21
2.92413257e-21
9.497424019e-21
1.874426018e-22
1.817862091e-21
6.935461338e-21
2.914516282e-21
2.675064422e-21
1.454868614e-22
1.974811316e-21
5.622320746e-22
2.899231828e-21
1.422227847e-21
1.573483277e-20
1.301124542e-20
2.634658325e-21
5.901342063e-21
3.155343426e-21
2.228496451e-22
1.064950911e-20
2.106709082e-21
3.198183614e-22
1.09707498e-21
2.2101969e-21
1.728553486e-23
6.925350893e-21
1.879264459e-21
8.138102862e-21
5.423784892e-22
5.427606428e-21
1.246150506e-20
3.120817273e-21
6.099747684e-21
8.131890924e-22
5.745469949e-21
5.173235035e-21
1.553672567e-20
1.606348208e-21
1.524241025e-20
7.109719741e-21
5.207162236e-21
1.579805118e-20
2.204576202e-21
4.737865577e-21
9.97140379e-21
3.97974664e-21
2.891228712e-21
1.076245657e-20
2.90131927e-21
1.646211039e-21
1.159238182e-20
6.357234746e-21
1.526434623e-21
7.941380865e-21
1.05762925e-23
7.590506178e-22
1.411395403e-20
6.195459208e-23
6.857194961e-22
5.605282152e-21
1.753173248e-21
3.20959133e-21
7.350985606e-21
6.654606892e-22
4.513690616e-21
7.302316812e-23
3.750667147e-21
4.198481917e-21
1.35155479e-21
1.385345248e-21
2.658322945e-21
2.569956148e-22
9.748847267e-22
7.226908718e-21
1.66424432e-21
1.699828359e-21
4.380986202e-22
1.490976336e-21
8.803413996e-22
4.081941812e-21
1.301163125e-21
9.607451829e-22
5.692074762e-21
2.912113101e-21
7.307994644e-21
2.670998071e-21
6.541852528e-21
1.417240785e-21
1.882722741e-21
8.774829599e-21
5.202111974e-21
2.297296674e-21
1.416996279e-21
8.691612198e-21
3.545311343e-21
1.907211988e-21
2.311841148e-21
2.82268417e-21
4.398374737e-21
5.699536216e-22
2.263549161e-22
2.161086429e-21
1.571119019e-21
1.917307425e-21
6.86432774e-22
1.243227761e-21
2.433282035e-21
3.153385474e-22
4.659988339e-21
3.593028511e-21
1.134685076e-22
4.177809475e-21
1.372193836e-21
3.714790803e-21
2.059329742e-21
4.256852364e-21
2.336098655e-22
4.325900431e-21
9.032316726e-23
1.49320626e-21
6.133344713e-21
1.501951672e-21
1.652299117e-20
1.293841231e-21
3.233635907e-23
6.147117006e-21
1.093769226e-21
9.502863113e-21
8.394634998e-21
1.064461311e-21
1.402748153e-21
5.206726592e-22
2.721303981e-21
3.071024474e-21
2.178301692e-22
5.648682196e-21
1.008634055e-21
6.096462337e-24
1.673176684e-20
3.696084734e-22
8.255244554e-22
5.315879502e-22
6.437785548e-21
1.983305213e-21
1.955919036e-21
2.186533951e-21
1.140129991e-20
2.715855466e-22
1.300611547e-20
1.369047072e-21
1.168364192e-21
4.552771161e-23
1.529316686e-21
6.267225535e-21
4.934322448e-21
1.729696341e-21
8.212632196e-21
5.643213074e-21
2.186864676e-21
3.449291592e-21
1.068543578e-21
3.207281429e-21
2.045209267e-21
4.575709601e-21
1.871084654e-22
8.68704988e-22
1.883311382e-21
4.41565102e-21
2.534830173e-22
4.270559207e-21
6.082295633e-22
1.560718221e-21
5.601016472e-22
1.678601518e-21
9.892053345e-22
1.448872902e-21
2.272355076e-21
2.553585582e-22
6.361479338e-21
2.221486713e-22
5.73903812e-21
4.731834978e-21
8.941398033e-21
8.489734532e-21
4.49056033e-22
4.580143975e-22
3.076405156e-21
1.449507166e-20
1.984301816e-21
3.291982632e-21
6.957632056e-21
6.039914529e-21
1.30072667e-21
7.417124385e-21
1.811732608e-21
2.33598814e-20
4.005419378e-21
1.477264279e-21
6.705721082e-22
1.897260266e-21
1.186949571e-20
1.633769034e-21
7.063965616e-21
3.030222927e-21
3.532382266e-21
2.646743917e-22
2.217049651e-20
3.278836521e-21
2.558000861e-21
2.400370546e-21
6.5170042e-21
7.798092788e-21
1.317191869e-22
5.29952752e-21
3.788360442e-21
1.074234928e-20
6.615736871e-23
4.087202828e-22
4.434686095e-21
5.48442087e-21
3.067224497e-21
7.539174854e-21
1.923720452e-21
9.787715762e-22
4.481568335e-21
2.448701695e-21
4.725058578e-21
3.290613479e-22
2.814424248e-21
1.039455088e-21
7.903284216e-21
2.133644802e-20
1.002972963e-20
1.609751602e-22
7.974994351e-21
5.855129935e-21
2.12170887e-20
8.146660479e-21
4.557284074e-21
4.563199355e-21
1.05554147e-21
1.05977608e-20
6.480281094e-21
1.970575939e-21
8.455577493e-21
4.229677872e-21
7.630210459e-21
1.596637438e-22
6.725144338e-21
8.841247092e-22
1.285214613e-21
4.761768054e-22
8.945945109e-21
3.83347118e-21
1.579456148e-20
2.545635939e-22
2.136631648e-21
9.836462399e-21
2.265669726e-21
2.417584236e-21
2.515894428e-21
2.363373504e-21
1.320385512e-21
1.895070749e-21
1.806924143e-22
2.972048939e-21
2.959826838e-21
1.147627254e-20
4.268427654e-21
6.463069298e-22
2.704560546e-21
2.035534515e-21
2.716863055e-21
3.455905544e-21
1.300479475e-20
1.412414326e-21
1.966326018e-21
4.332847327e-22
8.168613903e-21
2.299417962e-21
1.811340901e-21
5.795497762e-21
1.736781795e-21
3.812255948e-21
1.099540052e-21
9.327564131e-21