/*--------------------------------*- C++ -*----------------------------------*\
| =========                 |                                                 |
| \\      /  F ield         | OpenFOAM: The Open Source CFD Toolbox           |
|  \\    /   O peration     | Version:  2.4.0-MNF                             |
|   \\  /    A nd           | Web:      www.OpenFOAM.org                      |
|    \\/     M anipulation  |                                                 |
\*---------------------------------------------------------------------------*/
FoamFile
{
    version     2.0;
    format      ascii;
    class       Cloud<dsmcParcel>;
    location    "0.0009/lagrangian/dsmc";
    object      positions;
}
// * * * * * * * * * * * * * * * * * * * * * * * * * * * * * * * * * * * * * //

64126
(
(-0.03043838869 0.02673426862 -0.01504019503) 1543
(-0.01379327993 0.005814006396 0.01417018765) 3387
(0.04962572808 -0.03430562617 -0.02400899449) 999
(-0.004049411899 0.007592299683 0.03975184357) 4989
(0.003455603958 -0.01313695777 0.03255100029) 4590
(0.03935093487 0.03201829457 0.007292422665) 3177
(-0.0006957515549 0.01444663697 0.02460005641) 4049
(0.03132361954 0.03510000868 0.01680868058) 3836
(0.02893879399 0.005651152859 0.03778282834) 4995
(-0.03833209062 -0.01752417671 -0.0326602077) 402
(-0.0153311579 -0.001182700637 -0.02115013517) 1106
(-0.01879595216 0.03846105472 0.03576977435) 5106
(-0.01993661904 -0.0216403766 0.02037193076) 3906
(0.04943930458 -0.02212876008 0.02792401289) 4239
(-0.004655518682 0.02213032498 -0.03728119064) 249
(0.000593866643 0.01654035672 0.0388942202) 5030
(-0.04582442966 -0.02767025664 0.01467859229) 3240
(0.02087894228 0.02955859773 0.0226021231) 4114
(-0.03274655565 0.03787827318 -8.501273273e-05) 2543
(-0.02069284671 -0.03997694485 -0.02840679861) 645
(-0.01182826877 0.001980112819 0.007543831927) 3047
(0.007218040144 -0.007178651946 -0.01000126221) 1731
(0.01215466817 0.01570671088 0.009699089052) 3112
(0.02829409324 -0.02971867453 -0.03001517964) 375
(-0.02830464731 -0.01080415548 0.005826392676) 2984
(0.03134747087 -0.007072299364 0.003375344171) 2696
(-0.04113294828 -0.03448431506 0.01229432354) 3221
(-0.03061003247 0.03341277435 0.03034836822) 4763
(-0.01090253862 -0.03185565518 -0.01169588089) 1627
(0.01001405724 0.02312810367 -0.002249471531) 2492
(0.04450578353 -0.01724653436 0.0286380286) 4258
(-0.03574389952 -0.03851333973 -0.03695301719) 2
(0.0009567840326 0.01382287861 -0.0125278801) 1810
(-0.03690510265 0.0235370744 -0.002150037504) 2482
(-0.04772996737 -0.001330480571 0.02400297211) 3980
(-0.0101658017 -0.02269847046 -0.02680066638) 707
(-0.04780464684 0.01204691256 -0.01156827333) 1800
(0.003501338613 0.006512705414 -0.03172967937) 510
(0.009401452947 -0.02826093553 -0.01038487728) 1651
(0.03614851648 0.0185997312 0.02579824136) 4397
(-0.04891390879 -0.001686029076 0.01270731485) 3340
(0.02618004782 -0.03258029564 -0.01498220525) 1635
(0.02864119613 -0.03371196333 -0.01336152544) 1635
(0.010391353 0.00813874093 0.01876049118) 3712
(0.04866334212 -0.02336369006 -0.01215975834) 1679
(0.04886337914 0.02323787027 0.03821852067) 5059
(-0.042564362 -0.03492288254 0.0230571304) 3861
(-0.0144204554 0.03046710921 -0.03788709566) 287
(0.01176794808 -0.03261474698 0.01266797827) 3232
(0.04384665075 0.006436345484 -0.002473976775) 2438
(0.01816586917 -0.02083119557 -0.009581257142) 1993
(0.008391600803 -0.007507520698 -0.03754210739) 131
(0.01719675466 -0.02646843069 -0.03132136677) 373
(-0.03439582103 -0.01854947449 0.02724386413) 4243
(0.001619929307 0.02966761221 0.006978219285) 3150
(-0.02379542087 -0.03405519734 0.03157928649) 4505
(0.0118558864 0.006121506924 0.03115694044) 4672
(-0.003830971855 0.009978390179 0.01016409686) 3389
(0.00703882666 0.01135203181 0.005626384292) 3091
(0.01013708565 -0.01738257584 -0.03399020695) 412
(0.01709452167 -0.002937347126 -0.02353107923) 1113
(0.04952452373 -0.03453984029 0.005952413546) 2919
(0.04833061555 -0.03256312323 -0.01103575776) 1639
(0.02205942928 -0.02891234363 0.0388668744) 4854
(-0.01176250563 -0.02209106038 -0.01159639369) 1667
(0.004452082565 -0.03594661645 -0.02624960667) 650
(-0.004997638917 0.004185530395 -0.02753714108) 809
(0.03865313424 0.009733652356 0.01590790474) 3717
(0.0151495231 -0.01874305232 -0.0324547676) 413
(0.02008145445 0.01027996271 -0.03798250326) 214
(0.002108596407 0.01579380127 -0.03519225394) 230
(0.01465472381 -0.03387393856 -0.007566090044) 1952
(0.01795816594 -0.006911077207 0.02802180781) 4293
(0.03860081602 -0.01328889071 -0.03523126692) 117
(-0.02121625119 0.008436196213 -0.02499208351) 1145
(-0.02683280097 0.02716554204 -0.02498803439) 1224
(0.03561527929 -0.01601220778 -0.02501042094) 737
(0.002413092372 -0.02554346023 -0.01170805588) 1650
(-0.01718299795 -0.009234723341 0.0138864339) 3326
(-0.007207587443 0.008554803658 0.02828004835) 4348
(0.04091018182 -0.01387352889 -0.034128078) 438
(-0.04224057243 0.005187048055 -0.0296976935) 821
(0.03573579839 -0.03108512519 -0.01189088297) 1637
(-0.004359294001 0.009921805218 0.004770337644) 2749
(0.02076133741 -0.01876871682 -0.01165371553) 1694
(0.03536166693 0.0004408187053 -0.02731542517) 817
(-0.008146618637 -0.02915429205 -0.02675795405) 688
(-0.01989298554 -0.0153109386 0.01760673756) 3606
(-0.0448184664 0.02286095339 -0.01017237735) 1841
(0.006712490051 0.007207607527 0.006566536922) 3071
(-0.0419370003 -0.03951978112 -0.02858598916) 641
(0.03323854692 -0.02371044885 -0.01257147895) 1676
(-0.005965081105 -0.03354016841 0.02613679373) 4188
(-0.03292776508 -0.02165216855 -0.03215095728) 383
(0.04407863047 -0.03245935121 -0.004072169788) 2278
(-0.04483320434 -0.02720046454 -0.02664372115) 681
(0.01642457302 0.03175841044 0.011161825) 3493
(-0.02510651131 -0.02991155265 -0.02383333064) 1004
(0.00041281526 0.005045083424 -0.01237398158) 1790
(-0.02456029227 -0.03806064762 -0.02247398678) 965
(-0.03814597956 -0.003833680865 -0.008476878728) 2062
(0.03640415339 -0.007963729259 -0.03200089493) 457
(-0.04752088434 0.03462697891 -0.02698570262) 920
(0.005847415658 -0.02793612939 -0.03984250538) 51
(-0.02662639534 -0.0145049813 0.03936674987) 4904
(-0.0469195508 0.03817044489 -0.03533964203) 300
(0.009632844368 0.01362594721 -0.0138148133) 1811
(0.03328309663 -0.004991592843 -0.03526511575) 156
(-0.01877921078 0.03122188618 -0.03419364525) 606
(-0.03916318716 -0.0003678800746 0.03629967908) 4942
(0.01386056835 0.034427766 -0.01586249408) 1572
(0.002878841068 -0.03696342567 0.001063325114) 2570
(-0.003292144401 0.01255739567 0.0115606015) 3409
(0.00798045112 -0.006931806373 -0.002591484042) 2371
(0.01656881431 0.03480337208 -0.0132565925) 1893
(-0.03616210575 -0.01081499231 -0.03145008692) 422
(0.04631545203 0.01227623064 -0.03912571801) 219
(-0.0005628957561 -0.0204622823 -0.000647198234) 2309
(0.04394639784 0.0344006136 0.008040680884) 3178
(0.01716135598 0.0189072046 -0.03988021088) 233
(0.01226426856 0.03195427983 -0.003562927204) 2532
(-0.03924904497 -0.0321461919 -0.02289835135) 982
(-0.01922072979 0.002755255562 -0.02306401603) 1126
(-0.04676462712 0.03373253542 -0.03935034216) 280
(-0.03721990231 0.01940353414 0.03536101257) 5022
(-0.0494954653 0.03512902901 -0.02415345232) 1260
(-0.01280057945 0.02420349849 0.02151450244) 4087
(-0.000719658601 -0.0273489836 0.02624593645) 4209
(0.02533588184 -0.004414053177 -0.02939935176) 795
(-0.03677331079 -0.01483238215 0.01254256349) 3302
(-0.02290868138 0.0255606933 0.0151801939) 3785
(-0.03999688066 -0.01079210167 0.01542383949) 3622
(-0.01028081573 -0.009718983846 -0.007062973638) 2047
(-0.0142993319 -0.004035081572 0.01757350313) 3667
(0.0405859381 -0.02962840486 -0.02829749862) 698
(-0.01912500714 -0.02746429687 -0.02212844141) 1006
(0.002081980545 -0.00466613224 0.002752151619) 2710
(0.01205539432 -0.01954145926 -0.01357317284) 1692
(-0.04511326695 -0.02135237237 -0.003406273312) 2300
(-0.04137407152 0.005239858139 0.01379630486) 3381
(0.01953917975 -0.02221817391 0.02677309232) 4233
(-0.0351715296 0.0006224798491 0.006180790806) 3042
(0.04627283501 0.003195790735 0.01523934) 3699
(-0.03413265241 -0.00986706142 0.0005940514263) 2683
(0.01695723353 0.02299579568 -0.01336868003) 1853
(-0.03280716647 -0.02834952064 -0.01652349257) 1323
(0.03519412253 -0.03802485435 0.009823774312) 2897
(-0.02194009903 3.307974676e-05 0.02906223955) 4325
(-0.04047153365 -0.02457061054 -0.01374928968) 1661
(0.01866923906 0.0330704812 0.005849341836) 3173
(0.03467478798 0.0276321283 -0.03036435608) 596
(0.03397328819 -0.03647673633 0.001408117371) 2576
(-0.03998517484 0.02199957568 -0.001447028292) 2482
(0.001657878752 -0.03577885039 0.02867238055) 4170
(-0.04769395195 -0.01410021771 0.03944911892) 4900
(-0.003278881767 0.03259124174 -0.0002497795622) 2529
(-0.03713940939 0.02637948198 0.02113985649) 4102
(-0.04439783028 0.03766761929 0.002222417106) 2861
(0.02575153317 -0.02199842978 -0.004362988567) 2315
(0.03081448574 -0.004395882067 -0.01870919732) 1436
(-0.04215883145 0.03426101403 -0.01440031459) 1881
(-0.04298265766 0.01375826417 0.03193818584) 4681
(-0.002480636939 0.03558439739 -0.02375825458) 1269
(-0.047779263 -0.00285845628 0.01182854602) 3340
(-0.03561645967 -0.03529739201 -0.03746886511) 2
(0.007495855558 0.007221069009 -0.00341546525) 2431
(0.0468615968 -0.03342665384 0.0007538588088) 2599
(0.03950706649 0.02258991896 0.01681554682) 3777
(0.01572467303 0.03256750416 -0.03882317193) 293
(0.02460477515 0.007657724855 -0.002188856457) 2434
(-0.01842599016 -0.03722523428 0.009152000146) 2886
(0.02244645709 -0.02463652971 -0.01522773511) 1354
(-0.04373660649 -0.02865616837 -0.03481232148) 361
(-0.002923761866 0.02228041454 0.03344643749) 4729
(-0.03226570354 -0.003585145801 0.01403657602) 3343
(-0.02385585973 0.01173923051 0.01977382453) 3725
(-0.000646380018 -0.02709159078 0.009592912476) 2929
(-0.04815021012 -0.01179377003 0.000242084508) 2660
(-0.03090672799 0.02668438034 0.02904736732) 4423
(-0.04105103295 0.02323836137 0.02890149694) 4401
(-0.03743959812 0.02307847947 -0.03357633487) 562
(-0.03314289568 -0.02644169097 0.01129219099) 3243
(0.01070662995 0.02060707294 -0.006381564811) 2172
(0.03039469681 -0.02247017176 -0.006963636631) 1996
(-0.01007609274 -0.01309079231 -0.02370975835) 1067
(0.03376110606 -0.01683522203 0.008002336599) 2976
(0.03660765131 0.02730927266 0.01408622013) 3477
(0.04757121187 0.03082515487 -0.004760265295) 2539
(0.004854921071 -0.0103931937 0.03134647097) 4590
(0.02524518883 0.02294330656 0.03518694352) 5055
(-0.004434771478 -0.02032209085 0.007308982336) 2949
(0.04954774616 0.02971036642 -0.03727866744) 279
(0.0332588139 0.02491779484 -0.02395986145) 1216
(-0.03885675149 0.02078932542 -0.01607884465) 1522
(-0.02576329074 0.03172731017 -0.01126441963) 1884
(-0.0002844021826 0.01612426191 0.01418331538) 3429
(0.006614450734 -0.007449060299 -0.03737463318) 131
(-0.01579840682 -0.03166323635 0.03731724479) 4826
(-0.02149993188 0.01903801212 -0.004191810114) 2465
(-0.002804624468 0.03209655278 -0.02987390974) 929
(0.02602686395 -0.005867697713 0.005598011389) 3015
(0.006786034425 -0.0285119457 -0.003950771699) 2291
(-0.04544564251 -0.000160634725 0.02819762023) 4300
(-0.02896385705 0.02540236435 0.009888898601) 3144
(-0.03991381032 0.01921224998 0.001802516247) 2782
(-0.02289727893 -0.009859538452 0.002390614232) 2685
(-0.01840667081 -0.02642344402 0.03415822805) 4526
(0.04164669864 -0.02002185114 0.006944151825) 2958
(0.02575471149 -0.02175341895 0.03052740248) 4555
(0.04177061867 0.03491984887 0.003858169812) 2858
(-0.01584208919 0.0268217191 0.008617238897) 3146
(-0.009449403944 0.03799256781 -0.02244550283) 1268
(0.01066353675 0.002258816256 0.01037166728) 3372
(-0.03589345077 -0.02418945208 0.03390468957) 4542
(-0.04192268176 0.02790476511 0.02889162364) 4421
(0.03907197833 -0.03603148791 -0.009738875452) 1937
(0.03598480904 -0.00153122256 0.0208463693) 3997
(-0.03117583534 0.01845970371 -0.01609664) 1503
(0.02209337444 -0.006743672394 0.002588705536) 2694
(-0.01000396096 0.002984833269 -0.01862962586) 1447
(-0.02082370723 0.02241598291 -0.02910695113) 885
(0.006877902825 0.01325901353 -0.01751014907) 1491
(0.04711377985 -0.001029995014 0.02778913248) 4319
(0.04991467135 -0.002241963376 -0.03669097533) 159
(0.02123915444 0.0172491002 0.03358362308) 4714
(0.03829628651 0.02335795587 -0.01850536085) 1537
(0.0225592509 -0.02073782738 -0.006932967263) 1994
(-0.04374324585 0.03515902691 0.03179494496) 4781
(0.03396992909 -0.02966472598 -0.03522626231) 56
(-0.0009809468481 0.02779836702 0.03280500594) 4749
(0.04162080482 -0.02583744063 -0.02344672417) 1018
(0.01187737577 0.02859239085 0.01535670393) 3792
(-0.01582581167 -0.01440723396 0.01456904519) 3306
(-0.04732976855 0.006009763662 0.03602121999) 4980
(0.04353621779 0.01442452842 0.0213140337) 4058
(-0.01600879929 0.001073291282 -0.003252247958) 2406
(-0.03333653097 -0.03041187234 0.03150832665) 4503
(-0.007426165693 0.02539612974 -0.02779269604) 908
(0.04466085059 0.03130935376 -0.02230595333) 1258
(-0.01010314414 0.01351595749 -0.03201534342) 527
(0.004498353905 0.02139244493 0.03689527849) 5050
(-0.02777110015 0.01280517734 0.03230652252) 4684
(0.03298135995 -0.02015261444 0.02290033315) 3916
(0.02972718091 0.03575591213 0.01421340798) 3515
(-0.04118099723 0.006695079879 0.0364450166) 4981
(-0.04574003613 -0.0009021858313 -0.0210851408) 1100
(0.01502368457 -0.01347804396 0.01918813283) 3633
(-0.003236218963 -0.03808194784 -0.01711100323) 1289
(0.02385214856 0.01950702553 -0.0009142641066) 2474
(-0.003922796717 -0.02298767524 -0.02997998098) 709
(0.04988923133 -0.005136892856 -0.03529756122) 139
(0.03071777942 -0.01592816633 0.02570971503) 4256
(0.04319993709 -0.004401745087 0.006568770135) 3038
(-0.03339863309 0.01023506279 -0.02822591199) 843
(0.01629032006 -0.02386197895 -0.01219245057) 1673
(0.04786039371 0.009429219012 -0.01849988619) 1479
(0.02742248122 0.01521814263 -0.02873081602) 875
(-0.02290266748 0.00687103952 -0.005802056513) 2105
(0.008729175362 -0.002238605067 -0.02219296355) 1111
(-0.030665675 0.0006028279704 -0.007515196518) 2083
(0.04345589502 0.02866338139 -0.01979869532) 1558
(-0.04697149779 -0.0131324547 -0.02627082565) 740
(-0.02771248835 -0.01585013685 0.001204001406) 2644
(-0.03737484311 0.03615522386 -0.03543949496) 302
(-0.04847884 0.015726498 -0.02107780766) 1180
(0.04191470171 -0.01546324724 -0.01841609999) 1378
(0.01444562205 -0.02898902579 -0.02222650039) 1012
(-0.01515795574 0.002000017339 0.02826870261) 4326
(-0.04831547916 0.02248294757 -0.02646123243) 880
(-0.04042394405 -0.0316225655 0.01595246576) 3541
(0.01116136198 0.00837256395 -0.02103514207) 1152
(-0.01552677865 -0.02562513339 0.005532853484) 2926
(0.01852652003 0.02732027269 0.00147619627) 2833
(0.007455212446 -0.01577941352 -0.01115183361) 1691
(-0.02029575498 -0.008864370415 -0.0342263219) 445
(-0.01706072323 0.03311260082 -0.03995363079) 286
(-0.03306938308 0.009427732867 0.03159017883) 4663
(-0.01965574701 -0.03355570005 -0.01313843125) 1626
(0.02334281126 -0.00785566865 -0.01138850235) 1734
(0.03762102948 -0.0009930364018 0.008363220786) 3037
(0.03321163461 -0.005956251219 0.03431070197) 4616
(-0.02433228794 0.03265922775 0.03408374947) 4765
(-0.01162603411 0.01141772685 0.03076616155) 4687
(-0.01323106563 -0.03673206085 0.02971394046) 4167
(0.04019849597 -0.01917291366 0.001768316813) 2658
(0.02164844961 -0.006943268237 -0.009717477376) 2054
(0.01667663481 0.01357451149 -0.01229803866) 1813
(-7.697431189e-05 -0.01087602676 0.02211423608) 3949
(-0.02130330178 0.003485214984 0.02328552224) 4005
(-0.01051826727 0.02512328896 -0.007590832416) 2187
(0.01613932206 -0.01229854015 0.03134335432) 4593
(-0.02667383359 0.02889118911 -0.01301885238) 1864
(-0.03546495753 -0.03160692488 0.003452242578) 2582
(0.02296049142 0.001391179689 0.02751004068) 4334
(-0.01975572729 0.02887424526 0.03529206503) 5066
(-0.004519608416 0.02347133378 0.007239205239) 3129
(-0.001261344811 0.004000231441 0.01436768682) 3369
(-0.001237661098 -0.0289738949 -0.0003704130401) 2289
(-0.01514613505 0.03843308957 -0.02428720165) 1266
(0.02477457283 -0.0234964507 -0.02311565706) 1034
(0.03054014528 -0.003269644675 0.02446564914) 3996
(0.02064530756 0.009541541532 -0.009507176481) 2114
(0.02310818005 -0.03616374407 -0.02614331238) 654
(0.036087311 -0.03251460377 -0.02997179619) 677
(-0.01520564708 0.01690438914 -0.01286643772) 1826
(-0.04095502326 0.00848230984 -0.03385875182) 501
(-0.02459209057 0.02727838754 0.01502712898) 3785
(4.012686988e-05 0.03961594073 -0.001013612141) 2550
(0.035891766 -0.01792284712 -0.03467124762) 417
(0.04016155791 -0.005927627771 -0.009481988072) 2058
(0.02310008967 -0.02363448566 0.02089637198) 3914
(0.008022257438 -0.0151882831 -0.000409404646) 2331
(0.005629224568 0.03786514829 0.01873850184) 3831
(0.04253684487 0.02705260833 -0.03891607879) 278
(-0.0194992885 0.03379307876 -0.03988195525) 286
(-0.002204022676 0.01301649236 -0.009378341902) 2129
(-0.04103373009 0.01186690821 0.02337144786) 4041
(0.02142095985 0.005244862168 0.0194415908) 3714
(-0.0299634571 -0.006723254845 0.0319256544) 4604
(-0.003248882575 0.03164357407 -0.0038840836) 2529
(-0.0005499185025 0.02314010187 -0.01495288376) 1849
(-0.02188584455 0.02059349926 0.03685983926) 5045
(-0.0002948298071 -0.01791467884 0.003083852368) 2649
(-0.01238807667 -0.01959724822 0.01660218252) 3607
(-0.004985414787 -0.01272216961 -0.004676340363) 2349
(0.01571846389 -0.03282635688 -0.003947340583) 2273
(-0.03731141171 0.00874893237 -0.02972995102) 822
(0.03942075275 -0.01048962975 0.006524597257) 2997
(0.03748074172 0.01513587263 0.01918882933) 3757
(0.02660871019 -0.009565479487 -0.03379695841) 455
(-0.003698781742 0.001297699991 -0.004449030307) 2409
(-0.01688122955 -0.01679704156 -0.01393096447) 1686
(-0.03326432594 -0.001571409154 0.006091589481) 3023
(0.008381676278 -0.0100038321 -0.02367005131) 1071
(0.04762750158 0.02447729446 -0.008508457115) 2179
(-0.001957819221 0.02706482853 0.003816948528) 2829
(-0.03477924388 0.01709121793 0.006402354748) 3103
(-0.04964985095 0.0008222471491 0.002358166995) 2720
(-0.009096640721 0.02687678424 0.02884854346) 4428
(-0.03682685459 0.01822607975 -0.03221780573) 542
(0.04037197703 0.02946734062 -0.02649223368) 918
(0.02487820334 0.03292903353 0.01969196591) 3814
(0.01349255823 0.02629018505 0.02697405816) 4432
(-0.00444625539 -0.01655333979 0.01154172265) 3289
(-0.01356507497 -0.02391050687 0.02640636897) 4227
(0.02118328103 0.03859540384 0.02786946148) 4474
(0.0005338629029 -0.02335680971 -0.009071037912) 1990
(0.006778371584 -0.03855072468 -0.03556399217) 11
(0.006557980494 -0.02197537373 -0.01595711918) 1351
(-0.04295985727 -0.008551603545 -0.02936484199) 761
(-0.01572333416 -0.03450278754 0.004694821756) 2586
(-0.00103955431 0.02770170271 0.01539971427) 3789
(0.03344849084 -0.02114463366 0.01610573423) 3596
(-0.02428226503 -0.01505162622 -0.02491457292) 1045
(0.048445158 0.004957452505 0.02655279611) 4339
(0.0116386565 -0.0265048397 0.03470216827) 4532
(-0.003071715718 0.01769594214 0.0216758381) 4069
(-0.04163853501 0.01512802616 0.03521377864) 5021
(0.03768257125 -0.0305896882 0.02617225228) 4197
(-0.01644594356 -0.03635439886 -0.03906791384) 6
(0.0474620722 0.02358779966 0.007622320226) 3139
(0.02432611141 0.01513335527 0.03678645552) 5034
(-0.03413362519 -0.03472545213 0.03340389008) 4503
(0.02988384078 0.001766256776 -0.03926128015) 175
(-0.04819416862 -0.03777373823 -0.0163429627) 1280
(0.02097764431 -0.03287216279 -0.01804818317) 1314
(-0.01272447522 -0.001154769589 0.02129526642) 3987
(0.03295875944 0.001496190205 0.02185721953) 4016
(-0.01044122834 -0.02035698847 0.01721730956) 3587
(0.01313879026 -0.021791988 -0.02529914081) 712
(0.04984837018 -0.01855554405 0.01092551783) 3299
(0.04851276922 -0.002064137113 -0.02749850623) 799
(-0.01854021288 -0.02054199713 0.009887530833) 2946
(-0.04618295647 -0.02614178428 -0.03047281331) 360
(-0.03021759695 -0.0213445365 -0.02406899151) 1023
(-0.0308863613 0.0139276549 0.007196774281) 3083
(0.01697761387 0.03414184736 0.03704286744) 5093
(-0.0362791209 0.00295746292 0.0192438437) 3682
(0.03031845498 0.01165431358 0.03311932016) 4696
(0.03390916093 0.02678396436 -0.03171604588) 596
(0.03316656209 0.02016208963 -1.225095209e-05) 2496
(-0.04563370182 -0.03753623592 0.004118172831) 2560
(-0.03639770393 0.003547453737 -0.02263045553) 1122
(-0.01775592559 -0.03124529974 -0.02423050811) 986
(0.04247467814 -0.003771394976 -0.03326139441) 478
(0.01877441341 -0.007813985339 -0.003901685436) 2373
(-0.01077109338 0.02345118384 0.002171403406) 2807
(0.005203781833 0.01688027387 -0.01921890989) 1511
(0.006493384077 -0.02987564088 0.01997698388) 3571
(-0.01889382346 0.03736089021 0.01427912776) 3506
(0.01013023402 -0.005786608806 0.01343055779) 3332
(-0.02324003918 0.03511160303 -0.03801483528) 305
(0.04508553847 0.003144123779 0.03644041318) 4979
(-0.01685404846 -0.005598926287 0.03943294598) 4926
(-0.03423443059 -0.03281884825 -0.03305074071) 343
(0.004461753827 0.0280492449 -0.03844815798) 270
(-0.03638813014 0.0154120036 -0.0120510227) 1822
(-0.008322366132 -0.02163283926 -0.029856541) 708
(0.009900840172 -0.009381676015 -0.02612189353) 771
(0.04686155975 0.009499316348 0.02308963719) 4039
(0.02818067944 0.03458610383 -0.02153871072) 1255
(-0.02039502064 0.03160792408 0.0291433895) 4445
(0.0367409848 -0.03426598373 -0.03085580607) 357
(-0.03695143671 0.001768539467 0.02763822077) 4322
(-0.01198828206 -0.02051367382 0.007680746501) 2947
(-0.01662070629 0.01532313854 -1.386427181e-05) 2466
(-0.03435744515 0.03083007305 -0.03216312645) 603
(-0.01023967853 -0.03149641731 0.03037622326) 4507
(-0.03906582824 -0.03794664348 -0.0001701299829) 2242
(-0.04188186948 0.01826224558 0.005447543383) 3101
(0.002159471386 -0.03245370422 0.03423092467) 4510
(-0.04930171781 -0.01640693051 -0.01963665623) 1360
(0.02590708908 0.03762238153 0.01406577573) 3515
(0.03736982837 -0.02093900709 -0.03085264369) 397
(-0.02465307863 0.03382738474 -0.007477459371) 2205
(0.02176299317 -0.03188180877 -0.01370512399) 1634
(-0.03004166189 -0.03368362261 0.01286734181) 3223
(-0.003906702087 -0.0258780169 -0.02211379783) 1009
(0.004311036929 -0.02925102513 -0.02956589837) 690
(-0.01788743593 -0.0373932543 -0.03234880551) 326
(0.0007175511374 0.0021878208 0.02072340297) 4010
(0.03363794968 -0.01980414626 -0.03165796704) 416
(-0.04495193771 0.0198830456 -0.02933483211) 861
(-0.0143822349 0.005927721564 -0.004424203125) 2427
(-0.007048757854 0.03417994765 0.02833175173) 4448
(-0.03702538557 -0.02920167173 -0.02655800035) 682
(-0.02075892946 0.02414679491 0.01870566124) 3765
(0.004776812488 0.03260340031 -0.005045959527) 2210
(0.01329088496 0.03823448977 0.004836635931) 2872
(0.04128616284 -0.03506758914 0.008437416225) 2898
(-0.04294648663 0.03424125556 0.02404266689) 4121
(-0.01897274402 -0.004696675877 -0.03733157276) 146
(-0.0143667621 -0.03906866671 -0.03715465015) 7
(-0.003128728854 -0.01774503057 -0.03032516099) 409
(0.04183489865 -0.009130320272 0.009576786087) 3018
(0.03910448159 0.0005683703497 0.01929237336) 3697
(-0.03955129824 -0.004710973707 -0.03384104647) 462
(0.04080213155 -0.03791711175 -7.685516395e-05) 2258
(-0.03439722674 0.01664841423 0.02766117972) 4383
(-0.04631942303 -0.01356888955 -0.008739545396) 2020
(0.03745784874 -0.03865035798 -0.002712188972) 2257
(-0.03919977532 0.01725139291 -0.008960386929) 2142
(-0.02225630084 -0.01491113125 0.03438913585) 4585
(-0.03620176638 0.0001005208959 -0.02492923984) 1122
(0.03879088476 -0.009765747673 0.0350027435) 4937
(0.04013993104 -0.02187145635 0.02908338026) 4238
(0.03824053775 -0.003240738079 -0.01417237675) 1757
(0.03595669164 0.01257967261 -0.009715594856) 2137
(0.0467999064 0.03872267431 0.02797625728) 4479
(-0.04113178172 0.01152009722 -0.0001659898151) 2441
(-0.02017447919 0.02490941943 -0.0008031257276) 2485
(-0.03992972745 0.03760348344 0.0267086829) 4462
(-0.04467852261 0.01733681808 -0.03227226155) 541
(-0.02994407649 -0.0323749146 0.0008687057106) 2584
(0.003879535765 -0.03837481202 0.03367592532) 4490
(-0.03958729388 -0.001863545898 0.007313492823) 3022
(-0.01490363139 -0.005331239875 -0.01016388326) 1727
(-0.03314422882 0.02610635379 -0.0347714131) 583
(-0.03638515967 0.0003900672017 0.003044537821) 2722
(-0.01567587414 -0.01052505115 0.02316937297) 3946
(-0.02883454913 0.03428698747 -0.03374218801) 604
(-0.001206837736 -0.03080742285 0.004065001744) 2589
(-0.02764273912 0.03932053306 0.0236203849) 4144
(-0.02046815295 -0.0149377881 -0.011024417) 1705
(-0.008953668738 0.02193408295 0.02650228885) 4408
(-0.031490161 0.02937274758 -0.002931088707) 2503
(-0.003251331169 -0.02485358795 0.003368548463) 2629
(-0.04472968941 0.01106177062 0.01025287167) 3401
(-0.0338278997 -0.03882713671 0.02720945591) 4163
(-0.02582824439 -0.01321073225 0.0246342913) 3944
(-0.01041571921 -0.01874181874 -0.01763437541) 1367
(-0.03214771392 -0.03453412289 -0.02540200506) 663
(0.0411587105 0.03589565211 0.01782448576) 3838
(0.02750338415 -0.01877345212 0.03353669759) 4575
(-0.00282502386 0.03960763154 -0.009844667638) 2229
(-0.0360296873 -0.009850025109 0.03877139936) 4922
(0.02822811646 0.03183235588 0.02012899406) 4135
(0.01384527267 -0.008939330726 0.01592345622) 3652
(0.01949681068 0.02760386893 -0.03112939149) 593
(0.02874741195 0.01770017613 0.02823972962) 4395
(0.03900446007 -0.02816041478 -0.01390630221) 1657
(0.02552856119 -0.00537476803 0.000511732862) 2695
(-0.0268221087 0.03574490935 0.003247669048) 2864
(-0.01385162312 0.03765307155 -0.003673522204) 2547
(-0.01834956133 -0.02708672956 0.021945255) 3886
(-0.006670308139 0.01729189329 0.000658482974) 2788
(-0.004704761081 -0.02772301588 0.02238610755) 3889
(0.04804651682 -0.03182148274 0.0292528375) 4199
(-0.03643077809 0.02243889354 -0.03511888974) 242
(-0.008172965781 -0.003510726086 0.03284451301) 4628
(-0.01141739588 0.006140153865 -0.02849045873) 827
(-0.04049337697 -0.0293637053 0.03315211045) 4521
(-0.03525320888 0.02398310733 -0.03174637831) 562
(0.04308163882 0.0203346786 0.02487634827) 4098
(-0.02379955229 0.01195371998 -0.03505403606) 205
(0.04196253583 -0.002659061855 0.03373455544) 4638
(-0.04024656255 0.005522727629 -0.01777159123) 1461
(0.02284859376 0.004838825185 -0.003829949658) 2414
(0.04983428059 -0.01985722116 -0.005151841486) 2019
(-0.007767336263 0.002064809664 0.01636097408) 3688
(0.04392469805 0.007145859324 -0.007476239458) 2118
(-0.03384486363 0.02839483745 -0.0144844066) 1863
(0.007107172048 0.008218727604 0.0349573155) 4671
(0.01918782458 0.02614971613 -0.03317953405) 593
(-0.0305226472 -0.004964657287 -0.01223454612) 1743
(0.03481013403 0.0370999017 -0.00341663378) 2556
(-0.02055265517 -0.0330549803 -0.02112490624) 985
(-0.0450091111 0.03277468129 -0.01226137868) 1880
(-0.01223513845 -0.03591569057 0.00184800941) 2567
(0.04774116532 -0.004501736587 0.02584116198) 4319
(0.01632630136 0.02563966999 0.03986365408) 5073
(0.03013616891 0.03458376963 0.0193094101) 3816
(0.04524952353 -0.03423115901 0.02386852526) 3879
(-0.04192414556 -0.02411168722 0.002988241228) 2621
(-0.0002715849862 0.01553611463 0.005194494996) 3109
(0.03167170968 -0.02303366715 0.0291022588) 4236
(0.001886460244 0.0053071378 0.01340133983) 3390
(0.04683235598 0.00781558551 -0.03601088649) 199
(0.04036717972 0.02859023883 -0.03776141466) 278
(0.04333690782 -0.02774154005 -0.01662527325) 1338
(-0.0164121516 0.02365879519 -0.03387021961) 566
(-0.01880405609 0.03379520278 0.01669212203) 3806
(-0.02400356293 0.009310085093 0.01044485817) 3385
(0.0125061023 -0.03999183704 -0.03094833801) 332
(-0.00720551251 0.004344018175 -0.03266313155) 488
(-0.01533166284 0.02364764422 0.02298094882) 4086
(0.002390772287 -0.03629259288 0.0376564815) 4810
(-0.04901411062 -0.01791835615 -0.01674336738) 1360
(-0.04645421267 -0.02981305469 -0.004907664608) 2280
(0.04357824633 0.02501828396 0.02319841116) 4118
(-0.005770812966 0.0361503432 -0.02710544138) 948
(-0.04737225205 0.01281764838 0.01021963594) 3400
(0.006467163049 0.007448853205 -0.01327333718) 1791
(0.04591728144 -0.009604379302 0.01355464018) 3339
(-0.03904158355 0.005475677349 -0.01467688732) 1782
(-0.03046770296 0.03893482212 0.03886344496) 5103
(0.03361266688 0.02147390489 -0.005438688804) 2176
(0.009877528113 -0.003578910536 0.02629893244) 4311
(0.006001511356 0.008487857868 -0.006609638761) 2111
(-0.02294316131 -0.00272324449 -0.02869991682) 785
(0.04101219289 -0.03295017482 -0.0308903605) 358
(0.02741943875 -0.0003969492549 0.0198631773) 3675
(0.03501408055 0.03719550217 -0.02851627305) 957
(-0.01133564084 0.02109481103 -0.02295330266) 1207
(0.01089980328 0.01346858225 -0.01441200188) 1812
(0.0388867329 0.006007083496 -0.005948509275) 2117
(-0.003680329366 0.02178418626 -0.007619520757) 2169
(-0.003507015362 -0.03090777845 -0.02343097445) 989
(-0.0312177481 -0.01202724182 -0.00638017269) 2023
(0.004681668792 0.01847881424 -0.01514311654) 1510
(-0.01396979896 -0.005828826096 0.02766021853) 4287
(0.003066732513 -0.01484391482 -0.01455355426) 1710
(0.02630358856 0.007384852982 0.00529433226) 3075
(0.04486010391 0.01407743303 0.0001692902356) 2778
(0.01584606002 -0.03652100762 0.0191679124) 3533
(-0.04740510263 -0.03290398447 0.03864867317) 4820
(-0.009578200728 -0.01612175682 -0.01534202293) 1368
(-0.0006675861249 -0.03509958973 -0.007888128803) 1929
(0.04547835836 -0.01345058056 -0.01712519911) 1399
(-0.004270279496 -0.03557989894 0.008592808618) 2889
(0.02682556748 0.0373023713 0.03122412899) 4795
(-0.03432479879 -0.01881637396 -0.03801313719) 83
(0.0452336032 -0.01415035387 -0.03807586009) 119
(0.02748939168 -0.03818453759 -0.03376080555) 335
(-0.02440301254 0.02193757286 -0.01759723379) 1525
(0.03133577441 -0.001366207217 -0.01206666713) 1756
(0.0290152126 0.01695050269 0.03232384107) 4715
(0.01243144771 0.01289691142 0.0300560732) 4692
(0.0432079307 -0.02957560865 0.02876960596) 4218
(-0.0462076074 0.005216787193 -0.01267491946) 1780
(0.0419917647 0.03090685885 -0.01344741563) 1898
(0.03338556628 0.02747522861 0.03969099998) 5076
(0.02701241444 0.008746562278 -0.02741327047) 835
(0.004080465611 -0.01555517249 0.03994818313) 4890
(0.008467484492 0.02761268729 0.02013103016) 4111