/*--------------------------------*- C++ -*----------------------------------*\
| =========                 |                                                 |
| \\      /  F ield         | OpenFOAM: The Open Source CFD Toolbox           |
|  \\    /   O peration     | Version:  2.4.0-MNF                             |
|   \\  /    A nd           | Web:      www.OpenFOAM.org                      |
|    \\/     M anipulation  |                                                 |
\*---------------------------------------------------------------------------*/
FoamFile
{
    version     2.0;
    format      ascii;
    class       vectorField;
    location    "0.0009/lagrangian/dsmc";
    object      U;
}
// * * * * * * * * * * * * * * * * * * * * * * * * * * * * * * * * * * * * * //


64126
(
(2295.435081 -41.55538741 -102.1470797)
(2124.84756 36.04920788 311.8523821)
(2232.744921 -44.9993068 -360.5991063)
(2348.016019 -46.9357617 249.4570925)
(1875.431353 -38.2511236 -197.1991764)
(2421.596528 -330.7095427 248.0404854)
(1891.440966 275.1050097 -54.6226628)
(2108.933829 -477.4001413 -155.3489184)
(2281.747535 227.1813471 232.0397995)
(1532.935602 78.7042877 26.14172562)
(1975.294108 -44.79751256 -198.7870495)
(2021.705763 -15.20780276 117.948598)
(2185.618522 23.72471373 398.9682978)
(2152.96022 461.0056378 184.4336413)
(1522.75718 177.972156 10.42103059)
(2309.541375 214.8531327 -209.9501752)
(1959.009122 376.9264225 -553.5350007)
(1717.971816 219.1416741 65.21096776)
(2363.302658 -67.94592816 -92.00854051)
(1799.238646 220.9964394 210.5352909)
(2152.745006 -223.6861713 71.77192216)
(1791.274007 -94.82329709 522.3542389)
(1854.041128 -141.5876248 249.5199945)
(2134.420428 724.0634571 66.94792216)
(2069.127389 333.362971 199.9831267)
(2180.668344 410.0465954 245.2901926)
(1821.207533 -181.566594 89.56763777)
(1817.887112 -667.9961193 -320.2487499)
(2437.72381 -341.3195744 -89.74511332)
(2343.302273 180.8894193 17.53156887)
(2417.655221 316.610991 261.4932646)
(2526.548317 -39.89618319 137.4176216)
(2197.570955 -212.3525436 251.2390386)
(2191.084616 -125.108686 -306.8293843)
(1606.756934 207.4901008 57.33907742)
(2153.343235 486.5340233 -682.8204101)
(2131.613946 -269.2427865 146.300771)
(2119.971148 -85.70871575 -395.8857415)
(1661.042002 -299.9860057 -135.3629948)
(2523.501399 -224.0498915 39.05343184)
(1976.492198 -123.8861621 -314.7803134)
(2170.099289 70.4920948 -144.6566056)
(1750.064367 120.5014197 310.9726243)
(1807.306806 -73.22321815 512.6033935)
(1777.07526 -151.4699812 -363.1447807)
(2212.937497 122.7609091 -242.3009685)
(2131.870159 -297.1581614 114.7279578)
(1789.651472 -80.46273693 -168.2602697)
(1472.074089 -156.3008147 344.0157089)
(2460.178462 -16.49050906 -350.888247)
(1889.06863 -22.8308055 535.4251101)
(2142.462785 -298.2385963 57.60319382)
(1454.667329 -2.286091303 -764.8951148)
(1987.141592 -17.31947364 64.67539231)
(2086.112722 -148.7711433 149.0309678)
(1725.048167 353.443634 106.3778047)
(1509.363403 352.5587641 408.9645599)
(2339.698591 -439.6824973 69.69086391)
(2049.340807 308.4985366 633.6635569)
(1589.18943 -125.2648872 -105.9050654)
(1589.099692 -175.3524013 333.259909)
(2305.234372 -33.15287983 194.4126339)
(1807.107029 -194.698932 -154.4494404)
(2128.20545 311.9399155 304.5285576)
(1922.110519 -206.2334191 254.9641918)
(2130.569627 251.6037838 -260.1998589)
(1926.842298 -383.5912728 160.3028525)
(2155.110889 -267.8061349 -296.2867762)
(2114.525481 82.11184252 142.5737295)
(1665.966873 -51.27115215 158.1241169)
(2086.460813 222.4882072 390.6235146)
(1374.996913 135.1487703 143.1099674)
(2344.42762 135.908433 -141.0738846)
(2167.175931 153.7853811 328.3573661)
(2464.973883 31.86146551 92.7009973)
(1821.513603 509.5164951 -162.2098452)
(2028.306909 333.0841838 -252.7155725)
(2196.403794 -104.3402701 -22.99233435)
(1855.257614 -74.18532 72.48315393)
(1902.480018 331.0716104 -29.80323188)
(1718.104681 126.1064257 220.661389)
(1995.25571 68.20035515 -158.7634142)
(2212.227705 -409.8238516 166.9748205)
(2305.190884 177.323767 374.9734081)
(1810.077703 -3.413473754 117.7279195)
(1662.856952 -54.38862922 -32.97190977)
(2078.70053 -41.05083741 220.1559569)
(2270.349975 394.8251774 -28.66573097)
(1638.918465 -373.365445 -99.44590504)
(1966.681285 222.178893 -400.2335333)
(1951.832092 -120.7955511 401.063669)
(1891.358159 -27.71506331 524.3005526)
(1957.555046 -132.3667972 -2.9664317)
(1823.083106 -291.8124101 431.4665806)
(1794.610399 -20.50768103 172.7899581)
(2130.143381 145.1340995 62.03626287)
(2185.012322 54.40353414 -53.50434516)
(2145.374486 -157.0212251 49.30094818)
(2142.514799 -431.4771231 -432.2948406)
(2011.758394 -607.4688964 9.185698267)
(1972.359022 78.44502296 24.80338127)
(2354.612939 -58.86862213 -62.66832523)
(1679.837054 83.91700193 119.9786393)
(1987.109389 -113.5642955 454.7610331)
(1885.135962 -508.8139378 182.9891915)
(1993.144968 -28.33210034 -666.0651239)
(1957.640034 -151.5272205 305.5101736)
(2088.748296 51.03308234 -267.3751587)
(1900.480599 -199.8104 -709.9167974)
(1938.768453 107.4257145 148.6298246)
(1872.388116 -377.3192402 547.5465249)
(2012.387338 -93.97231482 271.1532967)
(1688.683117 174.786263 4.089699594)
(1997.089309 195.8504722 720.2127714)
(2036.002514 454.4119514 -507.8671705)
(2181.171152 -129.3660091 -357.5081019)
(1954.765839 121.3714525 394.6232995)
(1798.004769 500.6310372 -367.5141544)
(2201.594022 478.9150201 95.8899015)
(2051.961798 541.4041809 360.6124531)
(2207.168327 0.2800706729 -158.4459143)
(1830.759559 5.514026067 201.0581027)
(2246.180871 226.6251987 -248.2262238)
(2184.421186 -460.6425971 -585.2579194)
(2346.913362 -132.3886913 99.70462327)
(2186.399805 -227.1498793 -51.9890983)
(2024.4394 -95.07321921 -203.8336801)
(1723.14112 219.6396597 214.7939169)
(1764.656853 -540.0872967 37.76169733)
(2455.36456 369.0041374 144.158596)
(2344.186712 -214.9633317 -74.06341145)
(2073.266058 -162.7005567 66.93095373)
(1946.062265 693.2007345 579.1001879)
(1903.627402 -112.5841224 -39.55307274)
(1626.841515 82.41932968 -402.9300269)
(2123.979144 -81.41277686 -167.1296943)
(2215.398372 43.13225352 -182.6453065)
(1719.88551 -7.675498616 216.5166163)
(2491.671806 -198.9005273 -40.51410986)
(1891.983027 854.6728209 -731.4785794)
(1975.732991 183.4705342 -157.2975988)
(2048.228748 56.00945467 -141.7062844)
(2119.474879 613.429881 -299.9702931)
(2028.328513 334.7423091 167.4215574)
(1887.375918 81.29598372 202.172813)
(2376.783378 -248.5987247 -207.1616362)
(1941.179439 186.8494477 -273.5957297)
(2137.945354 -225.6299415 131.8107062)
(2081.004465 64.77963593 117.2928913)
(1940.277252 -6.387262293 114.3057664)
(2206.97482 342.1421005 161.7397829)
(1675.776836 513.89544 23.49300198)
(1759.848583 -88.36438839 69.29215717)
(2199.987907 340.9446306 79.22832919)
(1829.582941 -311.8731864 -78.29660114)
(1954.9242 -241.9633818 -361.884817)
(1956.853553 -58.82464411 305.7598561)
(1518.322068 627.4467249 -247.1246901)
(1773.918638 201.8560678 593.2770373)
(2031.188042 157.1057228 190.6051291)
(2338.947081 285.8061304 366.4404996)
(1907.569312 64.13484113 -941.3880777)
(2458.433146 -329.9941557 -343.8860114)
(1812.103628 99.59800993 -63.65653015)
(2170.732731 105.756907 218.2114513)
(1628.080897 -38.8398698 187.8654458)
(1542.034902 151.5426321 418.3378072)
(1902.50495 -78.61925277 75.04543697)
(1820.35177 122.1761227 -99.2833842)
(2210.847735 93.89194282 582.3549066)
(1695.845545 -129.7687572 -242.8076137)
(2135.350819 192.1606257 -99.27646162)
(1666.88151 -439.6355586 224.9279926)
(1817.109167 -437.9926464 339.9959944)
(2045.64694 -17.06162382 510.2193372)
(1567.291522 607.2144776 -96.57405293)
(2039.902587 -88.70205591 217.405828)
(2202.572665 1.803905513 -250.9576163)
(1848.185794 -353.0580968 -185.4376031)
(1902.311003 -646.8885827 -74.82072382)
(1913.674097 -274.396511 -219.1261629)
(1985.85021 -386.8767337 45.21730584)
(2136.941808 346.3110239 79.79682924)
(1764.261305 139.77432 398.5926618)
(2034.80796 -483.8420449 402.9860224)
(2043.88251 125.9701624 289.1651848)
(2357.559426 770.7136009 406.5921997)
(1991.58985 -177.3105522 53.70087053)
(1804.948855 -95.70360112 279.9182884)
(2528.343845 221.6896015 -354.6832681)
(2068.251556 160.8226357 -382.5153825)
(2026.946282 -433.2973962 195.2192591)
(1800.484692 183.5092845 -231.3112448)
(1625.909819 -69.35435389 105.558856)
(2268.897514 78.11155271 -16.34583576)
(1901.727911 60.9477358 -42.94885504)
(1910.092725 -102.9449748 -269.750449)
(2331.521455 -13.60968135 9.167540674)
(2165.404806 261.4599384 11.90992782)
(2049.341824 228.3890875 327.5862546)
(2191.260128 362.3938081 418.8098884)
(1641.705989 -190.29487 -443.2812379)
(1822.720985 -120.1315863 -7.114054285)
(2424.911176 506.0194399 -144.0491803)
(1794.508948 -366.4174513 -444.4893323)
(1309.010219 184.221984 283.0955054)
(2383.382424 670.7529199 78.42731508)
(2169.05383 -148.100382 -77.6334679)
(1914.920212 -108.7035343 -358.2784755)
(1959.679474 453.408689 -169.0563713)
(1926.079853 194.6508651 -463.8645696)
(1762.980344 301.3319416 -30.89408951)
(2178.807849 -559.8272653 -307.5539967)
(1416.276793 333.6850367 21.06764901)
(2012.190845 248.0676298 54.33005712)
(1563.537119 -100.3720456 303.4220265)
(1721.481887 162.4018828 136.445188)
(2313.276598 230.0085438 33.95561381)
(1748.727539 -186.3146798 172.5927645)
(1852.471465 151.2319988 -73.36455991)
(2233.95911 469.3627909 530.9747025)
(2373.56929 -226.7310533 376.1237412)
(1637.223388 -107.4433021 -43.41493331)
(1567.400463 677.4130468 -67.95124901)
(1819.324742 -537.6367062 -229.8511956)
(2388.920931 -195.1326427 -102.8852031)
(1716.756761 -604.9543904 -7.631586805)
(1555.354786 -120.3171345 -402.125022)
(1110.264638 349.3013002 479.2471146)
(2171.879708 -591.2024569 2.906491675)
(2510.188262 213.0138218 160.4256705)
(2428.974638 153.5883241 -263.0414967)
(2293.067387 12.97194855 227.5804979)
(2400.377217 -222.5006638 271.5926794)
(1707.52159 181.677981 141.0767565)
(1628.320219 -573.1266088 170.2465856)
(2330.949634 178.5173027 540.3151944)
(1866.110201 -171.3170192 200.6626017)
(1896.206069 -151.3365376 540.3042036)
(1659.732863 95.798544 287.8620414)
(2236.754839 160.5463913 -527.2489672)
(2093.188092 335.2571575 144.2990701)
(1842.361234 593.2154644 -109.1086085)
(2111.570873 -529.8204817 -259.4185158)
(2133.342025 -30.02576924 -248.6052618)
(2079.634579 -20.75774999 357.3684155)
(1631.340641 -3.008146411 -43.72719664)
(2479.145786 -290.1998322 -25.7897092)
(1901.363707 -826.8574539 350.3336375)
(2045.249517 371.9000823 -5.960515106)
(2214.655483 -573.3100679 499.7269558)
(1767.928943 -180.4206675 22.57649303)
(2101.817537 -59.30522379 144.9672754)
(2044.743532 94.67258473 -131.4296857)
(2160.252527 -487.2068487 183.548297)
(2344.357127 -463.3813992 191.6124286)
(1771.656109 -227.2036777 180.1547419)
(1950.318228 -322.7778711 260.1566673)
(1561.846121 -180.5533499 272.5864857)
(2365.570825 73.73375765 213.2702787)
(1939.375841 -217.3787781 37.39253734)
(2082.055847 -36.03086666 -467.8323624)
(1293.252961 485.565618 108.2969627)
(2095.580868 3.683236377 -96.71605285)
(2090.75479 -340.7303391 391.7960486)
(1737.132665 -92.95285445 -258.1145836)
(1949.10163 267.5832143 20.31692648)
(2530.964974 259.5907727 -107.6419386)
(2656.287405 61.55223553 176.0667929)
(2055.080247 -192.557704 288.6603906)
(1833.448946 -31.06648146 390.594671)
(1989.193831 -20.32294885 109.0351911)
(1658.270509 230.4579102 23.94097238)
(1772.10458 -437.5590703 347.3816678)
(1913.248392 251.9270498 -312.462202)
(2496.512464 12.95995362 -13.20790478)
(1492.736746 602.9570644 219.065541)
(1500.059045 498.0326574 -35.3252096)
(1962.592354 17.26689435 67.66247894)
(2233.890888 -609.529225 55.30118766)
(1846.951765 506.627141 647.7915591)
(2342.092168 139.044006 -402.2247258)
(1981.981554 283.9035436 -522.8474226)
(1597.022689 256.7189901 489.0746181)
(1706.085278 -73.86724809 -31.45090249)
(2060.057574 27.51977849 -35.0062673)
(1741.179673 131.9622398 285.5396064)
(2061.524728 333.5449551 551.7899987)
(1746.427595 -98.34916152 -89.96775579)
(1811.794198 284.4545608 9.221918624)
(2233.390228 373.2296387 -271.2944565)
(1678.221822 575.3759128 -658.6853903)
(1974.613847 677.8742849 -564.695166)
(1712.290557 444.6131081 -271.4405982)
(1898.085443 460.2414888 919.122741)
(2023.840901 260.0777357 138.9767705)
(2012.157283 -66.60382107 175.3524643)
(1941.751225 381.0988602 394.3581743)
(1740.359339 2.946106639 -307.3137378)
(1778.933238 -96.02658975 318.9876787)
(2128.987859 -63.46560479 612.9414959)
(1566.481555 -2.8308417 165.1145546)
(1367.223394 335.9032451 -279.2710643)
(2001.197748 -356.411978 -205.6287838)
(2048.383472 401.7109874 -38.45016692)
(1844.045155 -229.3937095 -519.5384498)
(1879.353382 -448.2551784 406.1166259)
(1653.085333 111.9677009 -170.6348255)
(1385.119096 -220.431266 -83.2801343)
(1363.227874 452.2286942 218.0312275)
(2254.874828 -280.6722618 -252.1404295)
(2084.319111 319.502484 -351.7699504)
(1748.880904 -60.14293781 -740.0036138)
(1831.533642 151.5015197 -297.3299954)
(2004.242215 -242.4451545 -251.8398831)
(2172.448979 -314.7728759 -152.3916655)
(1986.94487 -140.0387851 -381.1340669)
(2127.184126 -32.35312435 -352.7454924)
(1481.335502 486.2064952 81.41353221)
(2280.16438 152.9531418 306.5483645)
(1692.287376 107.2859846 -83.59872288)
(2130.043876 -4.417135301 -186.1243576)
(2083.894707 648.189981 -110.4655369)
(1788.117893 565.6147099 6.183237784)
(1802.637075 -229.4317041 376.1655713)
(1682.088017 419.1746561 68.16520584)
(1882.609339 176.7615133 249.760282)
(1884.556358 142.0301283 -132.4318761)
(1599.498941 74.90139626 37.0859402)
(1769.050665 325.8754381 623.887588)
(1643.111333 -73.44927456 -196.4308589)
(1794.421087 150.1609896 191.8558504)
(1448.79772 67.35262222 206.9953498)
(1842.398929 938.6048048 -263.728745)
(1764.958702 -106.7056253 -66.9346824)
(2269.822936 435.1767781 -51.52703264)
(2230.838616 -108.1724115 -297.1426227)
(1861.104749 -119.8517318 101.8552646)
(2387.404559 217.758699 432.6372426)
(1609.024953 -20.94740892 -229.0678386)
(1610.584132 495.1730739 118.1539258)
(2059.461301 -23.44666175 298.224234)
(1687.758737 -271.2325918 435.1937719)
(1724.967849 107.3822222 309.9984544)
(1720.580096 -238.0793778 319.9422267)
(1984.140575 -200.0980276 271.4001335)
(1206.459648 23.90533348 203.5144474)
(1096.20239 6.331191371 -306.8242949)
(1765.758515 -107.752974 -92.12945136)
(2219.171603 176.6202583 -128.4730102)
(2369.856846 200.7776002 -189.8767368)
(2153.484289 -204.1908802 153.3809035)
(2043.686816 -55.68907349 -254.1583991)
(1923.587764 -166.309461 -485.9297278)
(2351.146648 176.1178875 -603.082794)
(1856.02587 16.11800156 -103.7803007)
(2145.98179 46.92380655 212.7638923)
(1801.517409 -471.8933374 -352.5168176)
(1692.578956 125.0517115 44.6285738)
(1872.526455 23.9939541 -229.7169392)
(2386.716257 388.655701 179.3964619)
(2025.625994 -79.88066031 237.719524)
(1285.93321 319.7506191 -505.6657991)
(2277.937532 -38.13003682 23.6328393)
(2023.462102 43.9858338 -126.6661818)
(1761.973459 -185.9270475 -327.6740812)
(1977.319445 -34.41941543 -193.7841563)
(1938.36445 313.1943508 329.2004682)
(1551.682769 -175.082093 -204.9038186)
(2182.221283 -556.2691122 -621.5652296)
(2030.00247 259.6329058 -442.4487906)
(2004.534093 -323.1963744 167.7604289)
(1645.006523 65.37959912 -34.00265514)
(1405.826613 176.7082069 291.8870726)
(1974.549754 383.728925 -126.7289385)
(1571.003193 -27.08603802 -109.9979453)
(2246.122076 -71.79602697 733.009631)
(2115.791328 -232.0766963 234.7517104)
(1794.316985 37.4012048 264.1985845)
(1539.644233 -207.9547388 -297.436534)
(1794.390902 -355.1534034 -362.1300657)
(1629.178024 -166.6866892 -575.6513359)
(1782.880174 -71.06429926 51.92353895)
(1934.170228 376.0263887 121.6220379)
(2456.707514 279.527934 68.21514278)
(2107.971144 -155.3072282 689.1206857)
(1558.641051 384.8936281 -377.3876683)
(2156.231166 199.8158197 129.9237768)
(1762.791151 137.4918679 -258.8180044)
(2100.451154 128.5156316 -395.4917903)
(2400.891852 -239.0145831 7.910856575)
(2065.988559 -77.06022683 -274.9849024)
(2171.259068 224.0577108 135.9392938)
(1969.930103 33.16994996 194.6875297)
(1623.051793 78.64930518 222.8897929)
(1586.37203 597.6190067 434.3681185)
(1997.717228 279.9915612 184.7310316)
(1742.470062 -206.0744327 74.69799183)
(1872.113988 -55.20250624 -485.8420913)
(1541.254487 234.5202468 -317.6645793)
(1976.795133 499.2878357 187.0412634)
(1654.846189 -99.97099129 185.1885018)
(2074.987516 48.60294106 325.8627967)
(2512.961135 -242.2355691 -62.91133239)
(1919.189795 -74.3299201 -27.74551475)
(1697.426139 -203.0913451 498.8354481)
(2103.124755 512.7578282 -170.6258827)
(1893.257464 -102.201591 -298.2560112)
(2246.252175 -312.0080278 -278.9788012)
(1666.171919 -316.7752271 177.4142645)
(1772.233057 -549.8315197 -44.62266041)
(1494.396714 -16.50651321 609.7500863)
(1993.731436 101.4524794 255.3065114)
(1719.173181 133.2735685 324.6939757)
(1888.309457 -312.6220657 -292.7296996)
(2150.825892 88.75554038 139.7925806)
(1576.347188 -229.5685973 20.30358293)
(1973.441979 23.17753397 61.37417305)
(2096.41042 -228.9577555 33.09179972)
(2086.114044 212.9134856 -279.0177104)
(2073.427592 -829.8197362 -59.76083263)
(2552.474258 -372.2323718 -35.82023131)
(1735.080293 570.4632447 67.35739998)
(2355.22047 -162.3632901 -116.3341136)
(1619.920919 42.33574706 -511.6648587)
(2009.384226 369.4230248 139.8581878)
(1850.957401 396.3649889 -407.5606571)
(2065.849379 -370.9251298 18.34559916)
(2079.777715 563.8056412 -230.3144069)
(2439.831659 389.1317575 -370.1451755)
(2450.415523 372.5522756 65.34061272)
(1805.492495 -160.7514657 -606.3521322)
(1817.351509 -112.2018381 -254.4534141)
(1971.599875 -197.9020823 0.4632103597)
(2128.462534 -89.27128035 131.2437202)
(2171.417097 -105.3237235 214.5322486)
(2182.100273 29.11690808 57.01579726)
(1768.461739 -524.8363613 -199.2066285)
(1550.616873 425.4490702 407.7794061)
(2110.917988 -27.54819477 227.8629826)
(2080.542053 47.51159121 -37.33883724)
(1922.525133 321.5745314 339.2996636)
(1843.254655 284.7414244 238.4352305)
(1585.375567 116.6009448 9.604128771)
(2241.6869 92.11570975 -165.108807)
(2001.242541 -186.5893404 378.8753578)
(1399.420732 377.1457173 429.2361076)
(1260.976746 251.1518145 107.4762954)
(1947.142492 -209.8527313 -198.8231448)
(2305.607971 -515.8826058 324.7273901)
(1988.699497 304.6775741 -124.948245)
(2715.617193 -79.43675269 354.3014262)
(2032.125476 -42.97633513 -312.1062042)
(2111.911494 189.5186682 129.989366)
(2372.531895 303.9303895 138.6737103)
(2046.278538 -200.6334174 -20.17382273)
(2467.887352 142.9774193 398.8589997)
(1985.523765 347.38046 -423.5400597)
(1715.632686 152.5424408 21.02983031)
(1783.080091 -229.9073864 1.363913169)
(1638.422295 1.201814845 88.26848878)
(2315.393857 474.316299 239.1273102)
(2284.980432 -53.29765488 376.7705331)
(1869.084485 88.65662802 -7.277566844)
(1491.074066 -83.7720378 49.27068607)
(1924.351128 -171.4696951 171.6447996)
(1631.516504 633.9629684 443.9311008)
(2234.216595 -50.11860725 -538.013997)
(1953.074761 217.9605457 97.06541791)
(1761.613176 -332.2538716 248.0047844)
(1891.177897 -84.9564795 16.37441435)
(2161.477235 -436.9984845 252.0226409)
(2110.44726 80.32127166 -216.2482811)
(1796.779262 320.9864994 -215.1061785)
(1609.692758 -102.8830616 -289.2313706)
(1611.787857 -344.8923621 -190.4738584)
(1645.845834 22.00857559 344.142241)
(2194.884842 -419.0846052 395.7444101)
(2082.848081 -336.2453217 79.72320446)
(1929.676782 -339.8321481 207.3358685)
(1861.318904 12.97369517 116.0804024)
(2197.862895 -69.47387657 202.2663802)
(1957.777705 585.6033782 -475.0768471)
(1353.683404 245.3872231 -98.45976535)
(2128.617212 -159.6635493 -244.780703)
(1906.88423 -570.5071151 -684.0023268)
(1923.918129 167.2997569 65.83667191)
(2133.077637 -27.02393345 -197.3381746)
(1861.843701 494.5220994 413.4039463)
(2290.206322 281.1458612 -386.7644829)
(1663.890151 403.7104293 50.56958513)
(1501.152806 -132.5590004 108.5065807)
(1999.229394 -194.1657539 255.6369587)
(2112.90093 599.6445919 427.3156721)
(1795.011632 204.9086315 154.2692794)
(1745.352052 4.509017712 -539.4334243)
(1985.777175 -199.1885673 -282.4733693)
(1906.439892 196.476167 445.6341553)
(1997.06186 115.6384566 203.572026)
(1918.987695 176.0601958 -210.7553928)
(2060.142823 32.84839309 -341.3605769)
(1827.519847 -104.7173092 44.43723884)
(1800.500692 88.82853612 70.96147248)
(2335.443652 63.86871898 -156.8670636)
(2203.33758 -342.2067476 355.084868)
(1958.986466 -101.2629286 -596.0508321)
(1774.577326 247.3833898 -229.6808455)
(2041.38651 353.9912459 -223.0140417)
(1618.907683 177.889449 97.63648582)
(1496.564576 -164.8383272 504.2290197)
(1921.261276 19.0334876 645.7518542)
(1970.32888 0.1758972541 234.4737259)
(2007.372467 237.8856049 -663.9727381)
(2160.575246 -42.18052691 293.6265801)
(1956.219213 72.58154977 -315.8420493)
(1665.389234 397.8537795 512.013891)
(1762.963679 267.0339258 -136.1116898)
(2389.775095 90.52624143 413.8876291)
(1815.572902 233.9840122 209.7604573)
(1909.082959 -250.7528293 -21.3335316)
(1783.979918 -54.02556853 21.41097182)
(1928.687055 -156.1269659 302.2432218)
(1967.317484 -288.7204817 -211.7821487)
(1800.605717 -370.0240797 -427.5017272)
(1615.786315 -347.0844065 36.67789972)
(2165.649351 -72.54795227 -16.43379207)
(1733.620863 -158.3045814 515.6997022)
(1894.168501 -691.398135 656.2237714)
(1817.585572 -120.2315856 340.9388464)
(1416.364001 210.3453271 -45.68762443)
(2083.580196 243.3053196 38.36376438)
(2043.175752 -299.8951522 124.246798)
(2055.766911 41.99705363 -49.37266097)
(1722.56081 -395.5357342 226.873279)
(1818.945782 472.2682756 289.4395741)
(1840.720119 -704.5700186 225.8227111)
(1794.483852 -4.136386136 -104.4337865)
(1555.735188 207.5823174 141.8628914)
(2308.523275 -378.8797998 -123.0458431)
(2155.72166 796.3924835 259.834929)
(2154.84432 52.31149742 -257.4675815)
(1900.902766 -58.08457884 -454.2583666)
(2036.10304 617.5072864 87.1376342)
(2361.62357 189.8726985 118.8898535)
(2018.188775 458.843552 163.6085761)
(2229.965096 58.74444269 299.8567245)
(1684.17409 -7.319667316 50.2586659)
(2205.190727 47.75254625 -71.69731656)
(2186.717809 279.0491448 290.032006)
(1785.778359 467.9760503 362.7587296)
(1667.033346 -204.1923225 334.5969048)
(1411.417089 236.222899 -7.257082103)
(1960.670349 -230.3058263 -238.0235998)
(1690.321949 -399.8061572 -62.19929916)
(1366.39222 -361.0899096 62.75057561)
(1814.243561 0.1577034532 -321.1458606)
(1628.165741 337.5981289 -90.51212449)
(2277.323354 -332.6281617 52.58192059)
(2220.768509 -233.3898065 -50.70162994)
(1538.97833 -62.21469614 -410.8378981)
(2158.550926 103.0076616 -51.53264527)
(2054.316928 90.31426879 678.6077315)
(1737.22257 310.3927402 -84.02374256)
(1919.736858 57.16030759 -191.5220937)
(2354.281464 15.77502017 143.503123)
(1550.249609 114.5360387 -362.1180145)
(1662.021125 537.2503388 -107.7717853)
(1853.189587 44.36855009 -240.079387)
(2692.531775 426.5137762 -59.80143342)
(2708.72697 -79.24048324 -102.1357495)
(2118.262244 -409.3116299 -47.49231572)
(2122.809227 57.35132782 488.4941895)
(1736.382252 221.0254297 -90.0415565)
(2522.969887 234.6434237 277.3822298)
(1838.15908 257.5455667 235.1688572)
(1836.306511 232.7603846 -415.8238981)
(1961.62448 249.8328137 238.8756036)
(1789.832559 143.8583547 -374.0882701)
(2557.412192 -53.87740767 -502.6566858)
(1830.450797 266.1489168 -529.7187313)
(1325.666883 81.08642679 -228.0284011)
(1827.512358 -138.5932305 -318.8136638)
(1542.422818 451.6455388 -298.8054901)
(1420.561757 -349.7307753 487.1668567)
(2163.583406 -53.01282926 -193.6682172)
(1958.364554 -419.4661249 -408.0322216)
(1899.011104 217.6528368 70.2078704)
(1661.922657 215.8115977 223.6836257)
(2267.439454 238.1719197 -69.34113183)
(2146.277881 230.5396314 355.3021435)
(1740.454276 550.778528 28.33464335)
(1600.042465 -155.2635695 253.7475689)
(1490.811539 592.8644025 365.4610889)
(2347.349036 152.9094497 -316.9330753)
(1296.076749 -128.1616712 23.30497487)
(2111.395079 271.2692515 544.0424886)
(1819.710448 -353.7059159 -73.26984883)
(1950.239004 -706.1031759 -545.9784105)
(1794.937743 50.48346944 -58.42230876)
(2017.726384 147.2090788 -67.33555068)
(2078.428776 -278.7950576 -53.68907863)
(1765.479479 166.4287846 -549.1740265)
(1903.501079 -308.4724015 -518.0498778)
(1646.919632 -85.48061666 -12.21366963)
(1276.965905 -130.0106893 -15.19217596)
(1753.882256 -179.9969693 -8.650708128)
(2299.538418 107.7422707 373.1589136)
(1887.842182 361.7377838 390.9801447)
(2407.332734 -406.5959792 266.3122778)
(1792.428804 287.6460189 192.1573648)
(2464.664803 -89.86536485 -491.2693817)
(1476.642724 -12.73616442 -254.4859022)
(2423.828768 -1.084724179 492.0115816)
(1881.326948 -119.6533646 -162.8759946)
(1677.843136 768.9553383 360.5444685)
(1677.324445 479.4286219 147.8736257)
(1776.699343 -318.5629551 -7.537624054)
(1823.203317 292.0509073 -77.36370933)
(1670.000711 921.1280842 47.99906306)
(1850.188966 351.0877351 -390.3089925)
(1839.290293 165.687215 63.05677181)
(1964.366255 -103.4540294 -271.8925037)
(1726.158458 -62.73099131 -189.4196223)
(1889.383213 -208.8726897 -129.3364461)
(1938.373875 -58.04947581 172.0007288)
(2000.323841 -825.0889325 -578.4920086)
(1837.805071 274.2756539 800.4783853)
(1861.923052 -345.478844 -451.1516616)
(1918.364891 -153.9211978 -71.02930858)
(1997.568318 140.4681415 -8.260966052)
(1957.793076 -151.4386394 -31.52756688)
(2292.468164 -266.4558425 691.4127086)
(2477.375322 -7.81929711 45.79130274)
(1941.31846 -186.9581777 82.14334479)
(1720.692385 -146.932797 17.47979176)
(1733.258056 143.8459535 209.655393)
(2048.040583 163.1449292 -76.80755461)
(1881.900474 164.2634915 281.5628306)
(1771.18624 -471.8137673 475.8499612)
(2184.272085 -143.9176393 -18.23345469)
(1862.976191 -461.1403932 -678.7477158)
(2055.204124 94.41719314 5.268991778)
(2027.171909 -58.62001534 4.646286913)
(1968.859495 -45.17740306 40.68184936)
(1479.977846 73.85452883 269.3555943)
(1995.586321 -192.8568586 -141.2660296)
(1796.75065 -84.81770511 375.9180859)
(1841.669847 148.2669602 -322.3486224)
(1992.258652 14.14962501 -105.1998241)
(1676.285785 -240.5182257 308.2015741)
(1771.691899 55.95946719 383.1237789)
(2015.85271 -362.1046473 -159.369092)
(1986.261657 -261.8239741 -200.5978928)
(2617.187726 -167.2515442 60.2513047)
(1942.040893 -421.8400119 -275.8935583)
(2039.320612 -101.8746089 -253.1241577)
(2003.379763 277.9446974 149.3849961)
(2177.640995 230.7165193 -57.4911499)
(1768.922848 67.53827095 134.0820044)
(1741.911877 474.7147609 209.9091064)
(1851.45394 250.5997473 -64.28885891)
(1860.5323 192.8115065 164.675202)
(1960.671797 -97.60430882 9.216639613)
(2239.458201 418.7263421 -39.37158243)
(2000.018483 -263.191682 -265.8746833)
(1748.464304 -462.7847192 -101.4354856)
(1141.579496 132.6624107 398.9738182)
(1744.487205 197.574758 165.8618594)
(2118.156639 125.8963276 -64.46893003)
(1868.514236 189.9077664 5.220885886)
(2086.264776 -436.6473236 -267.9859053)
(1975.417841 -70.28396649 390.4212851)
(1900.009119 -359.5943734 454.5477664)
(1910.333834 -233.4349368 -685.1552572)
(1822.08797 529.4458571 413.8864603)
(1461.769884 378.0715285 328.200416)
(2335.281041 -73.1259688 153.6776797)
(1733.064067 -773.2242053 -644.5642704)
(2107.163134 223.5155165 -74.38362826)
(2478.710557 96.24493552 7.934555474)
(2165.691497 -193.9284025 -559.9772651)
(1833.646885 172.5174482 82.8445483)
(1585.090361 617.7942801 -132.818755)
(2021.457908 591.4700412 59.81758818)
(1709.461993 170.0856776 107.495631)
(1926.174102 388.4365422 120.8565644)
(2242.124537 -169.955454 87.65623157)
(2013.271762 350.8228952 -145.5232374)
(1275.530755 448.4239132 -10.91611315)
(2444.387592 96.73150002 -97.48480792)
(1957.403908 -15.19492315 373.0839008)
(1827.85851 -316.2742181 183.5789309)
(1020.824649 -693.8363595 -394.6183053)
(1614.048996 -56.73093114 -39.32615593)
(1263.672089 -109.3994966 58.3831869)
(2322.562301 67.77845431 -9.148432833)
(1932.107119 -162.4028215 -472.1434364)
(1606.832575 681.8263725 -20.04613168)
(2014.026422 -185.7821849 214.1768164)
(1955.818684 334.5785606 165.2014457)
(2034.185614 367.7801328 307.3823201)
(1781.375728 -85.86582728 -366.5755018)
(1728.422235 -54.82884864 250.3821651)
(2045.536579 -336.5798098 -167.6049942)
(2241.708178 -176.0144036 -622.9943521)
(1581.250279 198.4890057 -450.6965899)
(2278.73498 -492.4542085 256.4309272)
(1656.643816 136.8711996 45.68783773)
(2308.839395 -390.7555156 -7.397537107)
(1732.061818 -306.7064062 567.7089988)
(2332.213098 26.81317957 -195.2739571)
(1905.217323 7.012297391 -190.7252969)
(1863.212097 152.349719 -388.1851971)
(1612.534159 103.350566 147.3053448)
(1533.159832 75.61173515 200.1786264)
(1909.65224 -158.8085834 -253.3584457)
(2030.171662 337.6686183 511.1067032)
(2259.539937 -51.13411117 309.1572714)
(2457.114107 218.5419015 388.3435041)
(1754.893811 -156.2306854 -82.26014269)
(1982.936465 -303.3615791 -92.74469383)
(1384.038315 339.6228724 -254.2453417)
(2268.773292 364.6083601 -93.35783747)
(2090.11348 -549.8323607 -168.2147156)
(1907.658379 1.418143295 133.9430966)
(2285.918958 -622.7758386 -67.64079872)
(2061.666748 62.83563507 319.9624721)
(1650.553391 22.00828832 185.4682871)
(2164.988777 609.4838106 -367.9081547)
(1843.852533 126.9739904 -152.4119741)
(1173.710919 67.6996145 -33.75711313)
(1641.518228 -81.62174322 -139.8362384)
(2131.118251 -145.8135653 -0.7498273433)
(1901.217647 265.2458516 -318.6430976)
(2131.623537 76.35133957 750.2556793)
(2256.925533 -122.7256762 -350.0990818)
(1899.686819 232.6448352 354.8761908)
(2005.018114 212.0162702 71.01509768)
(1934.970824 -212.4193126 29.95465761)
(2448.524618 247.1159696 -315.16595)
(2138.675113 -232.2539937 -134.8096316)
(1719.387264 -682.6471084 -33.0980886)
(1819.69384 123.8874571 -481.4816848)
(2139.968288 -522.4470936 322.5519112)
(1832.18189 -556.3874421 118.5005921)
(1952.597802 144.1577543 398.148889)
(1814.867012 182.475782 556.6985583)
(1498.992334 2.147029146 -202.6877645)
(2244.847876 -272.2775215 -68.44902668)
(1901.262814 163.5598166 611.9119099)
(2177.257385 -448.3338661 -217.0440589)
(2163.126575 -173.5872936 232.5156246)
(1890.943668 -408.9303553 377.3594845)
(1746.385261 91.34045932 -204.3220687)
(1935.89221 -296.1804486 -157.4752971)
(2385.71489 137.2238032 -513.9034454)