/*--------------------------------*- C++ -*----------------------------------*\
| =========                 |                                                 |
| \\      /  F ield         | OpenFOAM: The Open Source CFD Toolbox           |
|  \\    /   O peration     | Version:  2.4.0-MNF                             |
|   \\  /    A nd           | Web:      www.OpenFOAM.org                      |
|    \\/     M anipulation  |                                                 |
\*---------------------------------------------------------------------------*/
FoamFile
{
    version     2.0;
    format      ascii;
    class       volScalarField;
    location    "0.0007";
    object      dsmcSigmaTcRMax;
}
// * * * * * * * * * * * * * * * * * * * * * * * * * * * * * * * * * * * * * //

dimensions      [0 3 -1 0 0 0 0];

internalField   nonuniform List<scalar> 
5120
(
5.565444193e-16
5.353489998e-16
5.923251363e-16
5.442571281e-16
5.768320177e-16
5.51690141e-16
6.024094728e-16
5.663602399e-16
5.560840535e-16
5.466226795e-16
5.454110725e-16
5.336083414e-16
5.812860842e-16
6.015410431e-16
5.707757534e-16
5.526020272e-16
5.112113487e-16
5.428613648e-16
6.097466582e-16
5.708239663e-16
5.406072721e-16
5.101940865e-16
5.765496914e-16
6.497653586e-16
5.77705834e-16
5.435111267e-16
6.170808114e-16
5.853593152e-16
5.726024285e-16
5.584017151e-16
6.322867188e-16
5.377628136e-16
5.698882919e-16
5.317241742e-16
5.619326604e-16
5.474664558e-16
5.713331681e-16
5.917633631e-16
5.433860393e-16
5.332200429e-16
5.622985737e-16
5.583249003e-16
5.582609765e-16
5.496160965e-16
5.511011598e-16
5.640604574e-16
5.587590305e-16
5.674617731e-16
5.391178606e-16
5.357721367e-16
5.048861318e-16
5.668183033e-16
5.875317057e-16
5.77865872e-16
5.855295574e-16
5.848204538e-16
5.509287811e-16
5.769538606e-16
5.874747475e-16
6.453949808e-16
5.540945298e-16
5.624530768e-16
5.562678121e-16
5.768659761e-16
5.292567963e-16
5.550703214e-16
5.681436144e-16
5.353049629e-16
5.368244128e-16
5.439304521e-16
5.355549354e-16
5.603834472e-16
6.069960905e-16
5.651276857e-16
5.958563822e-16
5.734494623e-16
5.343342831e-16
5.254421752e-16
5.82146832e-16
5.390588917e-16
5.4216847e-16
5.686373467e-16
5.573923964e-16
6.031088759e-16
5.219236215e-16
5.297121864e-16
5.70273556e-16
5.855821512e-16
5.254936007e-16
5.386717221e-16
6.017792731e-16
5.411505207e-16
5.514531273e-16
5.899103902e-16
5.696218775e-16
5.468584073e-16
5.632362529e-16
5.43045708e-16
5.691828057e-16
5.760861932e-16
5.631410957e-16
5.715029865e-16
5.676991851e-16
6.011036664e-16
5.787907201e-16
5.436611347e-16
5.937553333e-16
5.501963191e-16
5.666685075e-16
5.233943738e-16
5.36648107e-16
5.491262713e-16
5.98994342e-16
5.800359901e-16
5.339179135e-16
5.295140701e-16
5.359403006e-16
5.480596967e-16
5.995733139e-16
5.381859279e-16
5.535089069e-16
5.450568557e-16
5.75817898e-16
5.460008493e-16
5.515139467e-16
5.729587466e-16
5.219275098e-16
5.441341831e-16
5.726583806e-16
5.956736101e-16
5.696122285e-16
5.234694024e-16
5.708709585e-16
5.279213038e-16
5.465815236e-16
5.642439996e-16
6.228927362e-16
5.876037737e-16
5.768391284e-16
6.01301816e-16
5.771962733e-16
5.398013054e-16
6.006555243e-16
5.681465987e-16
5.549991858e-16
5.376421817e-16
5.590206146e-16
5.129956794e-16
5.375118935e-16
5.620558546e-16
5.714593748e-16
5.509499615e-16
5.791767093e-16
5.789772252e-16
5.928439523e-16
5.744382643e-16
6.211617474e-16
5.017530852e-16
5.752809997e-16
5.67097353e-16
5.60727914e-16
5.737085905e-16
5.85708977e-16
5.317957929e-16
5.443279644e-16
5.084210294e-16
5.554465768e-16
5.319152284e-16
5.679740291e-16
5.627788895e-16
5.706095056e-16
5.726386862e-16
5.825438361e-16
5.576516454e-16
5.753545463e-16
5.331113286e-16
6.790411151e-16
6.250176596e-16
5.645332364e-16
5.555363428e-16
5.937777822e-16
6.041184904e-16
5.360032555e-16
5.274562531e-16
6.377518918e-16
5.334137726e-16
5.669515076e-16
5.026497627e-16
5.528375692e-16
5.422865282e-16
5.543513655e-16
5.289502688e-16
5.548786279e-16
5.388188433e-16
5.379158757e-16
5.523726846e-16
5.57541196e-16
5.492840116e-16
5.151045955e-16
5.927449752e-16
5.451110044e-16
5.147531254e-16
5.570368417e-16
5.62345471e-16
5.416518056e-16
5.858269023e-16
5.638103897e-16
6.040403166e-16
5.748962859e-16
6.519237708e-16
5.342422274e-16
5.646084428e-16
5.646039774e-16
5.587361406e-16
5.53485271e-16
5.78313762e-16
5.465407292e-16
5.644908018e-16
5.876827473e-16
5.991024951e-16
5.521534181e-16
5.634870805e-16
5.699325457e-16
5.650005067e-16
5.265746296e-16
5.673835349e-16
5.941896798e-16
5.742075312e-16
5.576457153e-16
5.563227338e-16
6.289691978e-16
5.552949079e-16
5.450407192e-16
5.552120151e-16
6.004385228e-16
6.094361698e-16
5.475550798e-16
5.02156893e-16
5.642466517e-16
5.509246913e-16
5.765596107e-16
5.613837187e-16
5.487232794e-16
6.176122817e-16
5.49179584e-16
5.624635633e-16
5.472994605e-16
5.283464303e-16
5.550677036e-16
5.419274406e-16
5.875119431e-16
5.681037689e-16
5.883234236e-16
5.412365291e-16
5.64435875e-16
5.727012408e-16
5.765650811e-16
5.365272921e-16
5.945537812e-16
5.348245302e-16
5.815992815e-16
5.607655303e-16
5.705223472e-16
5.274513549e-16
5.562433561e-16
5.710797963e-16
5.156580148e-16
6.085193816e-16
5.479179781e-16
5.872365108e-16
5.949760862e-16
5.844404739e-16
6.012022037e-16
5.612301275e-16
5.816311808e-16
5.679007178e-16
5.797221932e-16
5.74015872e-16
5.667788715e-16
6.202126673e-16
5.676769714e-16
5.432868806e-16
5.540216779e-16
5.642427998e-16
5.769880178e-16
5.561659516e-16
5.417412081e-16
5.718563315e-16
5.586695075e-16
5.736966876e-16
5.899757055e-16
5.647584867e-16
5.481264269e-16
6.016361351e-16
5.264532594e-16
5.380873037e-16
5.524490618e-16
5.943342446e-16
5.426276851e-16
5.672553871e-16
6.244301443e-16
5.333417498e-16
5.908349673e-16
5.22231053e-16
5.606529494e-16
5.442111728e-16
5.509080545e-16
5.533498438e-16
5.59734044e-16
5.570860386e-16
5.658937504e-16
5.82093143e-16
5.506176753e-16
5.704269544e-16
5.539926524e-16
5.984502131e-16
5.772555129e-16
5.554937801e-16
5.754290887e-16
5.605956795e-16
5.766238113e-16
5.548863856e-16
5.331858667e-16
5.580043621e-16
5.974499058e-16
5.342731848e-16
5.375696845e-16
5.312464309e-16
5.679476874e-16
5.679476874e-16
5.256324465e-16
5.360808478e-16
5.810675938e-16
5.934820104e-16
5.657710614e-16
5.724039972e-16
5.435595235e-16
5.454460893e-16
5.698359648e-16
5.727376061e-16
5.366398469e-16
5.460658453e-16
5.613355236e-16
5.233815585e-16
5.403254529e-16
5.354882721e-16
5.522469545e-16
5.718209966e-16
5.358185406e-16
6.115218165e-16
5.504246569e-16
5.397411106e-16
5.630921733e-16
5.708784573e-16
5.78331599e-16
5.832403539e-16
5.489669367e-16
5.858797591e-16
5.473539858e-16
5.753462434e-16
6.033709494e-16
5.471258801e-16
5.660747623e-16
5.765464306e-16
5.29593797e-16
5.825277728e-16
5.558848844e-16
6.560551428e-16
5.885931721e-16
5.603968931e-16
5.842115669e-16
6.095661263e-16
5.441546564e-16
5.60508421e-16
5.386536925e-16
5.561233026e-16
5.474506813e-16
5.409191907e-16
6.195197074e-16
5.547743325e-16
5.63448418e-16
5.973910878e-16
5.665916465e-16
6.157908504e-16
5.668834903e-16
5.424921226e-16
5.498617838e-16
5.675581551e-16
5.803441938e-16
5.684327177e-16
5.250931839e-16
5.658028248e-16
5.88157593e-16
5.400162263e-16
5.650067272e-16
5.344695359e-16
5.541443296e-16
5.650475359e-16
5.352506669e-16
5.554283733e-16
5.363906567e-16
5.757708456e-16
6.02802012e-16
5.593054023e-16
5.531685861e-16
5.825052392e-16
6.066930888e-16
5.492562847e-16
5.144162003e-16
5.604188586e-16
5.944017114e-16
6.295777218e-16
5.380445105e-16
5.684600728e-16
5.69317023e-16
6.447207323e-16
5.819184453e-16
5.84494543e-16
5.214226321e-16
5.692309703e-16
5.889985418e-16
6.272728584e-16
5.257479491e-16
5.626411713e-16
5.642982967e-16
6.156288717e-16
5.465788782e-16
5.977754813e-16
5.429525034e-16
5.761264281e-16
5.514785209e-16
5.571456488e-16
5.648180332e-16
5.309178048e-16
5.736922367e-16
5.765652237e-16
5.441730905e-16
5.658322827e-16
5.603648896e-16
5.844531829e-16
5.703494522e-16
5.854058441e-16
5.400712989e-16
6.179772418e-16
5.796934899e-16
6.076475402e-16
5.141395104e-16
6.370988369e-16
6.292740229e-16
5.879369179e-16
5.417291984e-16
5.831248991e-16
5.286862631e-16
5.544622379e-16
5.675725534e-16
5.873716206e-16
5.238876226e-16
5.399467247e-16
5.609938197e-16
5.56188049e-16
5.987312612e-16
5.745724935e-16
5.646337018e-16
5.524258778e-16
5.495194416e-16
5.631142371e-16
5.548674612e-16
5.907839087e-16
5.999982493e-16
5.511361751e-16
5.413920462e-16
5.715877238e-16
5.710634198e-16
5.82792355e-16
5.207304047e-16
5.42561441e-16
5.28884148e-16
5.23478022e-16
5.653723142e-16
6.020877469e-16
6.034972741e-16
5.657750321e-16
5.327639514e-16
6.445230239e-16
5.693101926e-16
5.366475359e-16
5.494456862e-16
6.118075112e-16
6.289793923e-16
5.087545939e-16
5.527846872e-16
6.077041979e-16
5.127624956e-16
5.412778446e-16
5.605715325e-16
5.509033552e-16
5.279066122e-16
6.273270802e-16
5.471332515e-16
5.297321532e-16
5.512599977e-16
5.889966638e-16
5.08340996e-16
5.388892722e-16
5.986817366e-16
5.570869541e-16
5.773136729e-16
5.395949872e-16
5.546555904e-16
6.067275092e-16
5.341510872e-16
5.556875808e-16
6.057515261e-16
5.282233514e-16
5.044075634e-16
5.643981683e-16
5.410823411e-16
5.424928715e-16
5.417227185e-16
5.298462725e-16
5.678476255e-16
5.948216089e-16
5.706175895e-16
5.944791248e-16
5.687392394e-16
5.758760302e-16
5.716443432e-16
6.125203517e-16
5.944144267e-16
5.424513898e-16
5.417524994e-16
5.562803318e-16
5.592077425e-16
5.327731114e-16
6.024910208e-16
5.351757425e-16
5.789733418e-16
5.567667936e-16
5.568984391e-16
5.356953255e-16
5.592390412e-16
5.754420922e-16
5.233046543e-16
5.512880515e-16
5.563665203e-16
5.337807326e-16
5.899898206e-16
5.684720329e-16
5.100465274e-16
5.198028483e-16
5.56293533e-16
5.199961799e-16
5.702892977e-16
5.404560293e-16
5.933736033e-16
5.372294231e-16
5.798151656e-16
5.385652235e-16
5.433854933e-16
5.711673275e-16
5.605312746e-16
5.586772975e-16
5.182323471e-16
5.425000034e-16
5.356269196e-16
5.645293393e-16
5.597858641e-16
5.504607412e-16
5.643825261e-16
5.762293731e-16
5.512648663e-16
5.582586463e-16
5.341428024e-16
5.717084178e-16
5.898197101e-16
5.547466043e-16
6.166920554e-16
5.466956736e-16
5.67562159e-16
5.457581342e-16
5.483296785e-16
5.462418923e-16
5.61233608e-16
5.588126473e-16
5.514488117e-16
5.432354128e-16
5.599763013e-16
5.954494973e-16
5.788206509e-16
5.538920938e-16
5.716336093e-16
5.430125914e-16
5.470009099e-16
5.579866333e-16
5.770522522e-16
5.802338146e-16
6.483291846e-16
5.890620131e-16
5.533973139e-16
5.434165747e-16
6.517280507e-16
5.66795233e-16
5.804766819e-16
5.870811125e-16
6.108555316e-16
5.144950532e-16
5.522881519e-16
5.329345769e-16
5.662649199e-16
5.598189785e-16
5.773460545e-16
5.638992691e-16
5.938220849e-16
5.263634223e-16
5.46762062e-16
5.821271929e-16
5.492538748e-16
5.645700581e-16
5.445277092e-16
6.351230205e-16
5.687861336e-16
5.494196749e-16
5.313216314e-16
5.319214265e-16
5.934976363e-16
5.854181588e-16
5.884571157e-16
5.719918614e-16
5.690177127e-16
5.651066226e-16
6.232792995e-16
5.633816434e-16
6.038687716e-16
5.516362412e-16
5.401016831e-16
5.50712644e-16
6.62813283e-16
5.476491734e-16
5.657941134e-16
5.859729559e-16
5.267514905e-16
5.721613126e-16
5.834991615e-16
5.425748738e-16
5.472359851e-16
5.342735673e-16
5.697251944e-16
6.122003414e-16
5.678991769e-16
5.759331649e-16
5.384513893e-16
5.726502457e-16
5.975701545e-16
5.632753178e-16
5.76187445e-16
5.467902873e-16
5.676704224e-16
5.503426424e-16
5.850872605e-16
5.622554455e-16
5.841225515e-16
5.970589129e-16
5.538044291e-16
5.581053894e-16
5.435805465e-16
6.046569094e-16
5.400294415e-16
6.469189834e-16
5.673810634e-16
5.466735174e-16
5.55686477e-16
5.332679432e-16
5.676026183e-16
5.723350408e-16
5.695616902e-16
5.529600423e-16
5.654776485e-16
5.684198396e-16
6.096179423e-16
5.387113404e-16
5.590238983e-16
5.938869564e-16
5.43151313e-16
5.859948298e-16
5.382501276e-16
5.437473559e-16
5.706530417e-16
5.554589945e-16
5.580740299e-16
5.841505571e-16
6.125482026e-16
5.324860318e-16
5.382154109e-16
5.845730004e-16
6.113748721e-16
5.574509681e-16
5.834811112e-16
5.390865052e-16
5.763220206e-16
5.763178503e-16
5.826962011e-16
5.459928668e-16
5.544125985e-16
5.635974163e-16
5.721224021e-16
5.951793766e-16
5.908096145e-16
6.036837478e-16
5.737846654e-16
5.733927292e-16
5.961763745e-16
6.62000075e-16
5.697146241e-16
6.19507673e-16
5.341272844e-16
5.456052754e-16
6.001219292e-16
5.544705348e-16
5.962130618e-16
5.745348048e-16
5.824580659e-16
5.34870488e-16
5.528302924e-16
5.657928436e-16
5.858270424e-16
5.278650062e-16
5.4019019e-16
5.620231899e-16
5.601331825e-16
5.739839475e-16
5.273386497e-16
6.086986607e-16
6.006172963e-16
5.652443077e-16
6.074957422e-16
5.718312648e-16
5.420955753e-16
5.627948103e-16
5.775725219e-16
5.521256012e-16
5.574911588e-16
5.705435282e-16
5.170330387e-16
5.991358948e-16
5.900348436e-16
5.973834709e-16
5.831618737e-16
5.687224696e-16
5.756069392e-16
5.936618309e-16
5.603083143e-16
5.644591901e-16
5.493062323e-16
6.33511726e-16
6.080179988e-16
5.496317166e-16
5.877502236e-16
5.486815982e-16
5.256295835e-16
6.142488375e-16
5.344367489e-16
6.121746153e-16
5.566604871e-16
5.283237081e-16
5.663406603e-16
5.588983456e-16
5.901928314e-16
5.701624944e-16
5.290219001e-16
5.368959126e-16
5.721412144e-16
5.550822417e-16
5.749356515e-16
5.779027485e-16
5.525807263e-16
5.289692648e-16
5.579910384e-16
6.149129883e-16
6.225008052e-16
5.05897245e-16
5.504273059e-16
6.292614126e-16
6.007329051e-16
5.57972049e-16
5.392766205e-16
6.192252085e-16
5.435729963e-16
5.715703937e-16
5.916443264e-16
6.410237423e-16
5.787503178e-16
5.708206664e-16
5.928274205e-16
5.36104841e-16
5.835786675e-16
5.679561177e-16
5.328595767e-16
5.353451434e-16
5.533969229e-16
5.28262642e-16
5.356701207e-16
5.771412688e-16
5.750613848e-16
5.733204463e-16
5.368928237e-16
5.249687169e-16
5.750418277e-16
5.498114629e-16
5.385856755e-16
5.554518749e-16
5.076540224e-16
5.549860973e-16
5.976613398e-16
5.577606135e-16
5.517421852e-16
5.573057047e-16
5.381351697e-16
5.462444386e-16
5.329248799e-16
6.103883601e-16
5.98498337e-16
5.864511964e-16
5.41980029e-16
5.654983819e-16
5.183543693e-16
5.480946465e-16
5.513830465e-16
5.623814453e-16
5.060631289e-16
5.766981622e-16
5.842388836e-16
5.989365854e-16
5.648153502e-16
5.762091167e-16
5.483897806e-16
5.678973878e-16
5.445349961e-16
6.03701556e-16
5.480211189e-16
5.914431154e-16
5.60324346e-16
6.366110953e-16
5.626025432e-16
5.984853766e-16
6.168548353e-16
5.543314824e-16
5.748961623e-16
5.302073209e-16
5.996836237e-16
5.590700073e-16
5.397794122e-16
5.915707474e-16
6.584193121e-16
6.138594075e-16
5.933386687e-16
5.66636452e-16
6.070520654e-16
5.393323768e-16
5.916390606e-16
5.155183148e-16
5.879693735e-16
5.575884168e-16
5.631933626e-16
5.402801163e-16
5.735536085e-16
5.983221884e-16
5.937673998e-16
5.498556405e-16
5.643834264e-16
5.103475682e-16
5.327639448e-16
5.38711185e-16
5.704792826e-16
5.775421991e-16
5.382892125e-16
5.870738195e-16
5.300860206e-16
5.43017698e-16
5.804967833e-16
6.258821213e-16
5.750613503e-16
5.854718484e-16
5.289119919e-16
5.593229217e-16
5.612930496e-16
5.259945274e-16
5.427443669e-16
5.414778076e-16
6.037363328e-16
5.814646742e-16
5.490110818e-16
5.677329724e-16
5.304059964e-16
5.933723488e-16
5.688577759e-16
5.846673607e-16
5.492848805e-16
5.303382694e-16
5.490852138e-16
5.959041861e-16
5.62309035e-16
5.440860202e-16
5.668200349e-16
6.043823625e-16
5.439989983e-16
5.587755086e-16
5.460738954e-16
5.291184221e-16
5.746876416e-16
5.422694435e-16
5.415020135e-16
5.788357644e-16
5.465183131e-16
5.997824405e-16
5.53717978e-16
5.986079153e-16
5.561693547e-16
5.548210009e-16
5.109188408e-16
5.49699824e-16
5.390879656e-16
5.478329444e-16
5.848727633e-16
5.848727633e-16
5.514707674e-16
5.558159974e-16
5.901639584e-16
5.466402151e-16
5.21880992e-16
5.93070277e-16
5.432518382e-16
5.593741083e-16
5.503179902e-16
5.667449861e-16
5.991583252e-16
5.829550047e-16
5.222895115e-16
5.294755598e-16
5.661869598e-16
5.457131879e-16
5.223376022e-16
5.483975296e-16
5.401228261e-16
5.408537445e-16
5.477175723e-16
5.762568189e-16
5.673711296e-16
6.067501082e-16
5.274435982e-16
5.593127293e-16
5.370824414e-16
5.630991446e-16
5.814688244e-16
5.383895354e-16
5.848950824e-16
5.961728746e-16
5.714690235e-16
5.714690235e-16
5.799988793e-16
5.666858018e-16
5.974858025e-16
5.67972412e-16
5.691165642e-16
6.319338676e-16
5.357077058e-16
5.794627902e-16
5.27306206e-16
6.084744334e-16
5.594540211e-16
5.622509076e-16
5.634710478e-16
5.822296107e-16
5.359672342e-16
6.280605053e-16
6.045736886e-16
5.678096539e-16
5.398730038e-16
5.316694697e-16
5.444105249e-16
5.490321554e-16
6.084240402e-16
5.485304717e-16
5.721728713e-16
5.574229877e-16
5.2827541e-16
5.565100188e-16
5.672697049e-16
5.474728067e-16
5.209066286e-16
5.558687068e-16
5.445455266e-16
5.720320044e-16
5.271364173e-16
5.795648501e-16
5.551991601e-16
5.323118001e-16
5.713735457e-16
5.255873698e-16
5.892745046e-16
5.379176642e-16
5.041793374e-16
5.442903769e-16
5.444090257e-16
5.32636377e-16
5.336255646e-16
5.638983055e-16
5.40444332e-16
5.85487991e-16
5.999226724e-16
5.721578541e-16
6.052576424e-16
5.538563944e-16
5.747496057e-16
5.793764016e-16
5.772768316e-16
6.075568895e-16
5.38097066e-16
5.37171259e-16
5.610154689e-16
5.35374596e-16
5.237195989e-16
5.732441849e-16
5.854095078e-16
5.603186181e-16
5.750740284e-16
5.681719197e-16
5.377228338e-16
5.655532576e-16
5.392860263e-16
5.399206448e-16
5.55895508e-16
5.718515034e-16
5.61473604e-16
5.944201669e-16
5.650261883e-16
5.785847312e-16
5.381749036e-16
5.78188147e-16
5.338776599e-16
6.355649224e-16
5.759823675e-16
5.823612101e-16
5.666177509e-16
5.13921732e-16
5.577544326e-16
5.630293014e-16
5.625236966e-16
5.226385486e-16
5.882866115e-16
5.556442357e-16
5.491037204e-16
5.402701287e-16
5.76821064e-16
5.40142011e-16
5.500875053e-16
5.474971311e-16
5.508656514e-16
5.967716582e-16
5.314690109e-16
5.55993097e-16
5.394178378e-16
5.595426295e-16
5.555916933e-16
5.457915376e-16
5.816564926e-16
5.690326728e-16
6.741371708e-16
5.717345532e-16
5.443809324e-16
5.944986796e-16
5.823300798e-16
5.741059571e-16
5.662168399e-16
5.398578536e-16
5.716092345e-16
5.779736329e-16
5.504672838e-16
5.595093018e-16
5.368707619e-16
5.822707411e-16
5.423091633e-16
5.63971378e-16
5.389442243e-16
5.67749814e-16
5.558890886e-16
5.520214542e-16
5.530488468e-16
5.527183041e-16
5.618578441e-16
5.323771742e-16
5.332877949e-16
5.421494911e-16
5.296486087e-16
5.615983107e-16
5.109587469e-16
5.485385803e-16
5.028844271e-16
5.901542674e-16
5.641561146e-16
5.045898039e-16
5.480169704e-16
6.261973993e-16
5.438012411e-16
5.430279493e-16
5.760811007e-16
5.813430809e-16
5.301894737e-16
5.743494195e-16
5.659473468e-16
5.952666619e-16
5.441355962e-16
5.7584512e-16
5.160302818e-16
5.356074238e-16
5.816317145e-16
5.65243764e-16
6.147288239e-16
5.512909913e-16
5.808264374e-16
5.345170929e-16
5.86979837e-16
6.07239894e-16
5.336059117e-16
5.389282413e-16
6.210813636e-16
5.315516388e-16
5.602898539e-16
5.499584997e-16
5.808796769e-16
5.79599989e-16
5.372095246e-16
5.389145886e-16
5.281037008e-16
6.013266918e-16
5.735894935e-16
5.432525074e-16
6.058251304e-16
5.805496985e-16
5.711212628e-16
5.421241912e-16
6.272125621e-16
5.910226432e-16
6.246230882e-16
5.688607483e-16
5.311760232e-16
5.455015514e-16
5.675397334e-16
5.841246418e-16
5.618874948e-16
5.277003723e-16
5.560261704e-16
5.300460505e-16
5.719363301e-16
5.772629676e-16
5.603417911e-16
7.051824069e-16
5.825961121e-16
5.47867327e-16
5.186494907e-16
5.679395947e-16
5.544116642e-16
5.830755112e-16
5.697407661e-16
6.068541377e-16
5.832166041e-16
5.614294354e-16
5.530014673e-16
5.547425561e-16
5.13228855e-16
5.828159057e-16
5.636776015e-16
6.377024674e-16
5.715738115e-16
5.340157091e-16
5.421408623e-16
5.191753771e-16
5.73650549e-16
5.795531911e-16
5.432302945e-16
5.541789426e-16
6.083109754e-16
5.584174775e-16
6.013236663e-16
5.555823076e-16
5.333797814e-16
5.6890719e-16
5.584204753e-16
5.825790032e-16
5.681220924e-16
5.528544315e-16
5.698653558e-16
5.181291066e-16
5.740789159e-16
5.989970415e-16
5.312269393e-16
5.675489417e-16
5.590406658e-16
5.622116568e-16
5.712127362e-16
5.776244802e-16
5.479228871e-16
5.556144499e-16
6.134270934e-16
5.618151419e-16
5.507108482e-16
5.825144559e-16
5.313385416e-16
5.81618756e-16
5.363308875e-16
5.897135633e-16
5.163846167e-16
5.623694474e-16
5.122812262e-16
5.414267172e-16
5.439480098e-16
5.925292293e-16
5.780109126e-16
5.605143183e-16
5.469589064e-16
5.570798447e-16
6.214456958e-16
5.951909902e-16
5.600258411e-16
6.069039448e-16
5.594366586e-16
5.808384109e-16
5.756237237e-16
6.422652585e-16
5.044973872e-16
5.613338246e-16
5.406907e-16
5.421335841e-16
5.256842953e-16
5.769952664e-16
5.748651632e-16
6.309345995e-16
6.053754193e-16
5.386082951e-16
5.46614142e-16
6.301817099e-16
5.629574312e-16
5.733850456e-16
5.215665829e-16
5.598394525e-16
5.561164752e-16
5.464033329e-16
5.393234386e-16
5.190495054e-16
5.458213401e-16
5.44795857e-16
5.83830565e-16
5.719540095e-16
5.272537474e-16
5.901044201e-16
6.025796749e-16
6.14085066e-16
6.204904141e-16
5.379844661e-16
5.759847871e-16
6.328434009e-16
6.242037396e-16
5.83210876e-16
5.814564577e-16
5.65497327e-16
5.359512031e-16
5.395421695e-16
5.701648142e-16
5.418300791e-16
5.365869771e-16
5.536528968e-16
5.988269932e-16
5.417908151e-16
5.201688768e-16
5.401653078e-16
5.472603281e-16
5.975324597e-16
6.234509655e-16
5.917738593e-16
5.867213537e-16
5.644535133e-16
5.359476336e-16
5.922972594e-16
5.531782141e-16
5.420484831e-16
5.679727455e-16
5.506098477e-16
5.854159982e-16
5.511700331e-16
5.778096427e-16
5.388693391e-16
5.71432437e-16
5.356844902e-16
5.708954502e-16
5.765688416e-16
5.385748907e-16
5.378141441e-16
6.033593192e-16
6.424250967e-16
5.178686231e-16
5.938061683e-16
5.580136556e-16
5.49201244e-16
5.302614866e-16
5.699853575e-16
6.103473425e-16
5.361444214e-16
5.960858153e-16
5.808688909e-16
5.624825048e-16
5.773018264e-16
5.809897353e-16
5.904072223e-16
5.552392294e-16
5.339116095e-16
5.553899955e-16
5.680304793e-16
5.242896403e-16
5.047482767e-16
5.430293534e-16
6.038074815e-16
5.627441386e-16
5.469140451e-16
5.349804369e-16
5.538701465e-16
5.731708477e-16
6.067614094e-16
4.978324789e-16
5.773255394e-16
5.721796329e-16
6.062062416e-16
5.048682675e-16
5.396403442e-16
5.815092824e-16
5.74718401e-16
5.309784049e-16
5.76338371e-16
5.864840147e-16
5.889347568e-16
6.306167023e-16
4.951885693e-16
5.961873215e-16
5.071132724e-16
5.596856585e-16
5.546083216e-16
5.660829753e-16
5.698527389e-16
5.307596462e-16
5.621542806e-16
6.265414877e-16
5.769682462e-16
5.267069557e-16
5.491180078e-16
5.751567529e-16
5.756750009e-16
5.890458157e-16
6.019061579e-16
5.980271971e-16
5.719634334e-16
5.340229786e-16
5.798468333e-16
5.472125148e-16
5.996140527e-16
6.421486824e-16
5.884158853e-16
5.456088805e-16
5.325610576e-16
5.541220161e-16
6.262157319e-16
5.351887893e-16
5.184117858e-16
5.571136327e-16
5.2951099e-16
5.613558648e-16
5.166658637e-16
5.866070367e-16
5.542370946e-16
5.923103444e-16
5.422011158e-16
5.910086787e-16
5.351342537e-16
6.24085008e-16
6.009078805e-16
5.57999717e-16
5.460149293e-16
5.216662781e-16
5.814127584e-16
5.613245598e-16
5.521356018e-16
5.871935464e-16
5.428672338e-16
5.449451465e-16
5.37337892e-16
5.741421072e-16
5.792979748e-16
5.614995035e-16
5.704044872e-16
6.070365029e-16
5.153059064e-16
5.39184238e-16
5.805870457e-16
5.389547016e-16
5.386325238e-16
5.396389652e-16
6.131788891e-16
5.590467943e-16
5.287803484e-16
6.247256942e-16
6.449402429e-16
5.771257786e-16
5.58920674e-16
6.148062221e-16
5.622089033e-16
5.788378962e-16
5.059472604e-16
5.628657132e-16
5.373621016e-16
5.41586754e-16
5.652217647e-16
5.34226433e-16
5.63783293e-16
6.099005601e-16
5.788888475e-16
5.391587469e-16
6.146129351e-16
5.792632612e-16
5.901661443e-16
5.965807681e-16
5.646603027e-16
5.703518431e-16
5.601392411e-16
5.775083357e-16
5.234988384e-16
5.20309252e-16
5.175663291e-16
5.451229224e-16
6.013620739e-16
5.517685836e-16
5.462561344e-16
5.757867494e-16
5.654521081e-16
5.574467226e-16
5.82743673e-16
5.792675946e-16
5.478046274e-16
6.603928032e-16
5.820356957e-16
5.676917301e-16
5.731935098e-16
5.513562091e-16
5.426109242e-16
5.642228639e-16
5.730149774e-16
5.65423504e-16
5.681508664e-16
5.391249098e-16
5.903271942e-16
5.568492418e-16
5.256406826e-16
5.775181376e-16
5.699821131e-16
5.255499808e-16
5.726194914e-16
5.70824722e-16
5.97998691e-16
5.512826218e-16
5.935872297e-16
5.606209366e-16
5.827959505e-16
5.861277072e-16
5.643153642e-16
5.417783882e-16
5.31876877e-16
5.668205153e-16
5.157113457e-16
6.221354424e-16
5.47883884e-16
5.810328688e-16
5.33209369e-16
5.5339199e-16
5.663141926e-16
5.904654855e-16
5.617922486e-16
5.331440768e-16
5.431080433e-16
5.997977127e-16
5.413837096e-16
6.058914278e-16
5.33511159e-16
5.514022161e-16
5.625153729e-16
5.762815925e-16
5.699949431e-16
5.500567755e-16
5.404769676e-16
5.776685528e-16
5.613713329e-16
6.018191561e-16
5.626730121e-16
5.6002881e-16
5.593260346e-16
5.498496013e-16
5.479974825e-16
5.872230893e-16
5.341542372e-16
5.533315233e-16
5.289577472e-16
5.7440465e-16
5.971111759e-16
5.479962227e-16
5.423206945e-16
5.520918981e-16
5.334074548e-16
5.727539401e-16
5.741816376e-16
5.465438361e-16
6.011089215e-16
5.860222618e-16
6.088607973e-16
5.634721254e-16
5.783321875e-16
5.603808323e-16
6.029551176e-16
5.892664892e-16
5.467378548e-16
5.090697387e-16
5.756847658e-16
5.5119761e-16
5.344387426e-16
5.558393647e-16
5.821626535e-16
6.391383473e-16
5.962877525e-16
5.584072702e-16
5.43840148e-16
5.909092504e-16
6.128541143e-16
5.691937627e-16
5.620639132e-16
5.899754958e-16
5.806120505e-16
5.996730252e-16
5.954929229e-16
5.565890815e-16
5.529379073e-16
5.220473925e-16
6.006233479e-16
5.413122265e-16
5.772210237e-16
5.915131463e-16
6.017729085e-16
6.033680628e-16
5.680628952e-16
5.200191702e-16
5.84300821e-16
5.785368738e-16
6.287132924e-16
5.288488505e-16
5.815700953e-16
6.205761316e-16
6.037766561e-16
5.98953776e-16
5.350271362e-16
5.563502569e-16
5.178347598e-16
5.331816872e-16
5.42897174e-16
6.349008718e-16
5.658322104e-16
5.838694399e-16
5.759621765e-16
5.476498362e-16
5.807766286e-16
5.224398692e-16
5.769950782e-16
5.685607092e-16
5.40396832e-16
5.217903454e-16
5.256429354e-16
5.688319345e-16
5.941616229e-16
5.389373968e-16
5.621957987e-16
5.203249494e-16
5.624323686e-16
5.627616467e-16
5.485926041e-16
5.292087741e-16
5.447551648e-16
5.482376212e-16
5.744401086e-16
5.628999262e-16
5.725027593e-16
5.477641265e-16
6.12690203e-16
5.729900615e-16
5.549106705e-16
5.217769749e-16
5.939908768e-16
5.683882293e-16
5.744916451e-16
5.963280968e-16
5.60875279e-16
5.568113746e-16
5.433715763e-16
5.50720624e-16
5.826311672e-16
6.112551986e-16
5.392195062e-16
5.131642319e-16
6.122467166e-16
5.518023076e-16
5.437221909e-16
5.858406353e-16
5.75628265e-16
5.429157455e-16
6.457601094e-16
5.988003258e-16
5.806065461e-16
6.048086186e-16
5.664113082e-16
5.700003801e-16
5.302543687e-16
5.774683712e-16
5.659806474e-16
5.705677628e-16
5.69809979e-16
5.886201164e-16
5.089767313e-16
5.626243601e-16
5.191673042e-16
5.398405317e-16
5.356610902e-16
5.631943519e-16
5.699942119e-16
5.698609009e-16
5.59509764e-16
5.546236586e-16
5.535517609e-16
5.743046424e-16
5.841767463e-16
6.198847232e-16
5.494035415e-16
6.45452553e-16
5.721090556e-16
5.645825318e-16
5.741090185e-16
5.404927544e-16
5.772280145e-16
5.532816594e-16
5.354812937e-16
5.892335131e-16
5.31803762e-16
5.617746255e-16
5.550599861e-16
5.972366435e-16
5.797816231e-16
5.620104277e-16
5.62866291e-16
5.508793721e-16
5.689550898e-16
5.546990452e-16
5.24486649e-16
5.691857616e-16
5.528293783e-16
5.704649834e-16
5.759247734e-16
6.093047526e-16
5.365799479e-16
5.531883099e-16
5.419226045e-16
5.77792232e-16
5.463724658e-16
5.957657509e-16
5.838573646e-16
5.46224511e-16
5.437739844e-16
5.392347186e-16
5.735614389e-16
5.70798227e-16
5.631687605e-16
5.632780598e-16
5.882141247e-16
6.183983611e-16
5.61050637e-16
5.471056572e-16
5.248813356e-16
5.713655081e-16
6.071204559e-16
5.912477911e-16
5.518514601e-16
5.927265881e-16
5.57967204e-16
5.959164957e-16
5.592311576e-16
5.666231919e-16
5.388887529e-16
6.028397495e-16
6.06347051e-16
5.721230201e-16
5.180018549e-16
5.991207987e-16
5.759636858e-16
5.35232972e-16
5.439250981e-16
5.914772448e-16
5.376759586e-16
5.233167282e-16
5.63597658e-16
5.434800479e-16
5.610176877e-16
5.763361328e-16
6.234897021e-16
5.531515335e-16
5.703462421e-16
5.647413731e-16
5.515061268e-16
5.256719899e-16
5.923620739e-16
5.728095683e-16
5.754086511e-16
6.27831591e-16
5.273710852e-16
5.365570713e-16
6.045339456e-16
5.693282506e-16
5.935978093e-16
6.220620503e-16
6.451658043e-16
6.036657761e-16
5.500055424e-16
5.702309732e-16
5.195068131e-16
5.320751776e-16
5.168066628e-16
5.393207903e-16
5.768171264e-16
5.403734455e-16
5.610743046e-16
5.433725514e-16
5.50296327e-16
5.506962258e-16
5.133195676e-16
5.592591602e-16
5.700514997e-16
5.872828211e-16
6.580574531e-16
5.909256367e-16
5.909256367e-16
5.679142136e-16
5.280656063e-16
5.41657209e-16
5.833447558e-16
5.233944629e-16
6.829086007e-16
5.16856089e-16
5.444700631e-16
5.885167822e-16
5.705444017e-16
5.539090067e-16
6.155136996e-16
5.685573458e-16
5.808238552e-16
5.498063213e-16
5.748799449e-16
5.321424055e-16
5.416376372e-16
5.779384586e-16
5.32403171e-16
5.720864181e-16
5.692121752e-16
5.511322128e-16
5.654510614e-16
6.060590329e-16
5.888766092e-16
5.782844257e-16
5.355955374e-16
5.480764981e-16
5.420714895e-16
5.994522788e-16
5.440052547e-16
5.707244265e-16
5.631915039e-16
5.303148665e-16
5.314180714e-16
5.586007629e-16
5.580476814e-16
6.196284642e-16
5.394914586e-16
5.472472408e-16
5.692213854e-16
5.709120834e-16
5.350870364e-16
5.643702438e-16
5.903229581e-16
5.561223941e-16
5.51634012e-16
5.931434171e-16
5.935096131e-16
5.734808136e-16
5.804052836e-16
5.791967806e-16
5.635447239e-16
5.432146212e-16
6.08342733e-16
5.570988807e-16
5.637684321e-16
5.757369768e-16
5.56705823e-16
5.841667382e-16
5.600221794e-16
5.657797257e-16
5.247469778e-16
5.331624957e-16
5.906392976e-16
5.810633344e-16
6.536208941e-16
5.60708377e-16
5.652418463e-16
5.550227893e-16
5.624656643e-16
5.846160318e-16
5.671589233e-16
5.577359827e-16
5.48773106e-16
5.556836884e-16
5.865617771e-16
5.599257615e-16
5.461627475e-16
5.430583935e-16
5.870255328e-16
5.537527728e-16