/*--------------------------------*- C++ -*----------------------------------*\
| =========                 |                                                 |
| \\      /  F ield         | OpenFOAM: The Open Source CFD Toolbox           |
|  \\    /   O peration     | Version:  2.4.0-MNF                             |
|   \\  /    A nd           | Web:      www.OpenFOAM.org                      |
|    \\/     M anipulation  |                                                 |
\*---------------------------------------------------------------------------*/
FoamFile
{
    version     2.0;
    format      ascii;
    class       volScalarField;
    location    "0.0007";
    object      Ma_mixture;
}
// * * * * * * * * * * * * * * * * * * * * * * * * * * * * * * * * * * * * * //

dimensions      [0 0 0 0 0 0 0];

internalField   nonuniform List<scalar> 
5120
(
5.59001478
5.625937627
5.578877446
5.711266416
5.681437734
5.737055193
5.66695387
5.637776455
5.797030624
5.773217417
5.83575883
5.791660678
5.930819798
5.754212009
5.602611719
5.716468333
5.787939821
5.73599865
5.645683849
5.595856908
5.633500622
5.587179178
5.530132784
5.61053989
5.641093814
5.429952621
5.565382215
5.579229827
5.458780489
5.435594161
5.641653094
5.764502012
5.801781574
5.799027829
5.77450847
5.698418588
5.566908954
5.481730661
5.649748902
5.782220275
5.692902229
5.606485012
5.596620891
5.567930119
5.47177465
5.609272616
5.674358293
5.705797334
5.735014998
5.673004133
5.706134081
5.694799985
5.576639317
5.636736856
5.575209751
5.530196678
5.467168846
5.541314973
5.483374564
5.592733089
5.534739495
5.601814709
5.622767264
5.598490216
5.663134341
5.645109163
5.809659136
5.820413542
5.798209384
5.614317315
5.615112571
5.528555857
5.487828678
5.435028848
5.571088607
5.690146652
5.62695806
5.770422239
5.679697727
5.41260301
5.699488618
5.648448848
5.435343243
5.480148965
5.666190393
5.586739951
5.517991505
5.583987386
5.670644342
5.633675258
5.56956105
5.678110682
5.620592692
5.716390165
5.691717729
5.863797333
5.765419534
5.594531134
5.515060536
5.628105705
5.414333393
5.416305387
5.504148437
5.55188902
5.56212999
5.532336526
5.584010481
5.575771531
5.618787665
5.80367248
5.746395116
5.643525817
5.639404122
5.547805862
5.569677494
5.475305144
5.493848327
5.635011406
5.482976099
5.448200282
5.692311922
5.588998708
5.706169247
5.646567891
5.645780975
5.608185073
5.656557222
5.703449951
5.598375997
5.422106562
5.500582333
5.617808026
5.575710153
5.567083266
5.733832641
5.714108365
5.651806585
5.506559803
5.487483322
5.593070747
5.739614546
5.668820196
5.558197867
5.603758116
5.585327975
5.569989686
5.50620066
5.490877808
5.453274747
5.390225085
5.297231388
5.384659855
5.498992185
5.549317881
5.373328287
5.445058977
5.640036916
5.650468407
5.479919063
5.633579433
5.500248149
5.389007275
5.480292607
5.50971677
5.584617359
5.479758535
5.356254
5.273266134
5.396364089
5.484341226
5.617755903
5.674062459
5.607883971
5.682511666
5.694082646
5.655217277
5.506708286
5.536309027
5.700088101
5.584570752
5.514135258
5.511147261
5.70399885
5.643611534
5.651448331
5.641335956
5.652880725
5.583423036
5.489184853
5.429526472
5.644423987
5.700540405
5.6763921
5.653541481
5.635099684
5.622118071
5.641047478
5.579514959
5.55522149
5.537062444
5.463717318
5.5266555
5.590377446
5.677307164
5.609444047
5.425108069
5.364728812
5.445604563
5.599517218
5.493221444
5.452311625
5.534512081
5.566434127
5.545148258
5.624197258
5.599829097
5.604498317
5.598734735
5.744365815
5.525169114
5.602107487
5.621786927
5.45548928
5.427666523
5.411220416
5.604277339
5.704533436
5.656012466
5.561884248
5.53005349
5.623660162
5.631948816
5.674379415
5.63845227
5.485178975
5.446229267
5.564499531
5.550901667
5.548024535
5.740087958
5.620631916
5.543064104
5.600660632
5.533212959
5.425831026
5.402926438
5.506773898
5.664837402
5.570252562
5.616256229
5.770231888
5.542326534
5.398331433
5.455968617
5.496689086
5.467072422
5.524844249
5.569202601
5.578343831
5.568932551
5.674331342
5.662820159
5.57099194
5.615789865
5.7124457
5.565861137
5.524127417
5.410618136
5.312953314
5.459887292
5.549710493
5.539297767
5.595274359
5.707260244
5.568734471
5.657892115
5.61927644
5.702561433
5.60275915
5.661242044
5.635961195
5.552607337
5.629152979
5.555228396
5.537434842
5.705302923
5.734024518
5.579619368
5.542057385
5.518314961
5.578513672
5.535986318
5.542175781
5.468484917
5.600934139
5.511886072
5.609917914
5.543874401
5.598352728
5.619483038
5.593572544
5.627978515
5.648054162
5.654730019
5.72185785
5.642086383
5.57164232
5.51406948
5.530864364
5.631681554
5.626444581
5.594668656
5.606654462
5.628488276
5.747112219
5.741910166
5.744684317
5.708605459
5.693096683
5.71273204
5.61068897
5.569631301
5.583840448
5.562972469
5.686987689
5.653702696
5.842279993
5.725719644
5.805696023
5.773131854
5.651318713
5.467485794
5.558968494
5.517820257
5.570373978
5.629708467
5.681101677
5.580167781
5.622431752
5.768115675
5.455119379
5.60564826
5.61289706
5.615295764
5.668903444
5.679991426
5.642245367
5.700829029
5.694166503
5.693099676
5.736349965
5.653714232
5.633114202
5.567531859
5.652609032
5.685144803
5.439536829
5.641977275
5.692191812
5.60804764
5.776447359
5.731442078
5.704470125
5.62260449
5.53401153
5.533130518
5.501254193
5.498953563
5.40604153
5.579050812
5.616805402
5.627407945
5.786732713
5.71646567
5.6941031
5.614579616
5.600337582
5.685273691
5.741152552
5.814007031
5.580688224
5.620187984
5.729603814
5.627290628
5.63793139
5.5583904
5.574553779
5.543410235
5.50802603
5.573222999
5.629725809
5.665748685
5.728323609
5.76852365
5.828493355
5.720507642
5.714657798
5.640390939
5.679707342
5.768461837
5.545634865
5.605732742
5.713037734
5.807850784
5.711453466
5.794771241
5.780565454
5.737904512
5.676122326
5.681865091
5.642181353
5.749271944
5.720261419
5.687654144
5.746981656
5.672799476
5.810968038
5.852692252
5.742304468
5.59805279
5.593475532
5.567713461
5.679022257
5.76037569
5.66806219
5.689148873
5.636918007
5.879721632
5.751568424
5.724633136
5.65329728
5.54783051
5.536449885
5.40236851
5.523702582
5.531426991
5.638703865
5.732543669
5.73262895
5.676542404
5.733438437
5.725348521
5.628310348
5.634431265
5.588391728
5.59315134
5.585767544
5.5361522
5.585991315
5.546576103
5.518129538
5.616666475
5.608349103
5.630481613
5.557293082
5.609878643
5.539497107
5.731820533
5.6552449
5.621746763
5.460897512
5.465706843
5.580880995
5.595994823
5.550750761
5.640363485
5.616367793
5.629863669
5.558547587
5.602060244
5.554660156
5.476792643
5.420000408
5.500324918
5.440681954
5.456173952
5.467051168
5.442705859
5.587332522
5.598594428
5.690099356
5.619164932
5.562224139
5.765538622
5.580659245
5.546919281
5.542133973
5.558722196
5.45364432
5.646695214
5.5889125
5.508864028
5.642352344
5.493213393
5.429839907
5.389445968
5.458285897
5.651876645
5.61543839
5.56169059
5.667271638
5.688385885
5.486792576
5.433031883
5.681631339
5.696117999
5.647378372
5.640703752
5.593479954
5.556950179
5.514269579
5.355709123
5.523663839
5.540380586
5.513770516
5.633695346
5.573927466
5.494317034
5.472647424
5.568521497
5.58988542
5.780636719
5.752474991
5.631971386
5.563120773
5.600009864
5.612921043
5.701558253
5.680592425
5.646745954
5.427237628
5.546807436
5.65368513
5.522436665
5.525558093
5.585204225
5.669558759
5.766453574
5.621207794
5.505124586
5.746868655
5.438730685
5.49273435
5.558926455
5.668270159
5.584830578
5.573651461
5.666208498
5.691486291
5.72133375
5.680589214
5.717011202
5.638731212
5.5903194
5.613523667
5.789368357
5.742640802
5.962037063
6.068373886
5.991860337
5.600658862
5.645521274
5.628399153
5.444788728
5.444769335
5.386929864
5.321589853
5.49417131
5.657209746
5.564393978
5.588759968
5.510575129
5.653487624
5.771328943
5.723466117
5.663011637
5.57927203
5.538786458
5.502761849
5.455203347
5.51920877
5.585984066
5.578326279
5.521236921
5.436844882
5.388918783
5.362539643
5.528127799
5.568358512
5.568821168
5.48719929
5.535591857
5.584237033
5.478397748
5.546456987
5.483470272
5.554482849
5.5651613
5.520417249
5.499459407
5.592432726
5.422384891
5.474789658
5.50758149
5.548736352
5.597791206
5.508722516
5.532365383
5.495101976
5.491038773
5.482193466
5.648467908
5.403368162
5.437276079
5.56349425
5.578911679
5.682822996
5.541697217
5.307479425
5.324609497
5.495192428
5.605041548
5.662607437
5.751562139
5.653900154
5.750403941
5.602905656
5.659198652
5.684974997
5.66965334
5.65768401
5.556074894
5.52814777
5.559448165
5.579310612
5.538478836
5.600033719
5.649635822
5.556546472
5.570891953
5.675389817
5.698985965
5.704045167
5.602358656
5.615948946
5.647290842
5.585218062
5.518929988
5.424262949
5.395985152
5.469087811
5.480424562
5.441708942
5.440621724
5.705466907
5.775053532
5.795803016
5.67730512
5.590478941
5.57564486
5.77073712
5.761272344
5.76665403
5.62897202
5.553464755
5.509890198
5.602703527
5.533451737
5.483321566
5.589479949
5.556526538
5.604131269
5.494742553
5.485582217
5.389160159
5.442939826
5.566371416
5.644069629
5.540870473
5.604391388
5.64389622
5.754474406
5.75563897
5.652545501
5.632658536
5.650720658
5.553250237
5.600219458
5.767584283
5.654928045
5.71296029
5.567585124
5.617192606
5.639614692
5.669983606
5.560461214
5.666571612
5.655122529
5.576777859
5.60280231
5.666941034
5.68531295
5.763380697
5.897274113
5.827360497
5.723573062
5.829400321
5.768161768
5.68952061
5.629624925
5.741187142
5.743742323
5.63432263
5.567347043
5.465557202
5.506120743
5.48749993
5.49352002
5.456959711
5.513465329
5.561015242
5.676445334
5.640586349
5.884559557
5.831782006
5.799218477
5.624770871
5.572035951
5.613553665
5.63475925
5.659253015
5.747935647
5.755503774
5.812018045
5.656213542
5.681772308
5.655666479
5.575749277
5.587801779
5.679068683
5.762415405
5.741420068
5.73429567
5.618400128
5.627875243
5.652096429
5.724461567
5.64239504
5.537383271
5.462269652
5.459999127
5.543011661
5.643540341
5.694817079
5.869426881
5.819748435
5.756684187
5.614123251
5.742009864
5.708815001
5.740880003
5.749593492
5.636329298
5.558836359
5.553490461
5.631831555
5.707599678
5.466581521
5.655695728
5.644197591
5.650722175
5.564797099
5.548640543
5.611233418
5.551684459
5.601568286
5.635402401
5.521901814
5.495132748
5.665914404
5.59917152
5.613109825
5.695960269
5.68745704
5.6207445
5.681786754
5.823132095
5.800067794
5.760559169
5.719755631
5.58920233
5.627286752
5.646480185
5.501353065
5.589183497
5.683488584
5.618122764
5.775429425
5.744785487
5.664970491
5.552839259
5.702667546
5.575630719
5.540731306
5.621539561
5.606214912
5.581961199
5.553662832
5.640898929
5.509960712
5.617788357
5.610727508
5.534391259
5.573573524
5.598367658
5.690319856
5.681289673
5.642618597
5.562182723
5.572002688
5.56500481
5.557380803
5.593204873
5.684642997
5.610619548
5.704808471
5.793165036
5.732766827
5.700577187
5.758790513
5.611566607
5.526516103
5.534962422
5.620102649
5.605287
5.560001038
5.561866881
5.424140474
5.587856209
5.653348723
5.548056387
5.578568562
5.556577454
5.542087762
5.536443995
5.503564181
5.525315974
5.580051414
5.483655239
5.508071069
5.667555948
5.559137087
5.489308661
5.53270958
5.606296716
5.635826836
5.461371728
5.485344619
5.382554062
5.493368386
5.31961013
5.487526626
5.502089321
5.511245957
5.506574596
5.576845161
5.46095639
5.561752489
5.506372619
5.676924544
5.614142416
5.491164075
5.468047219
5.503435896
5.487323964
5.308601957
5.518266355
5.559431897
5.652810847
5.595388807
5.590470361
5.461184012
5.610387023
5.664190984
5.697468448
5.591000857
5.613149598
5.529497416
5.625765161
5.660363476
5.572777013
5.601946305
5.620755941
5.611325763
5.775920954
5.807816524
5.532432053
5.505604706
5.44752003
5.509888833
5.528505909
5.679264868
5.671953889
5.733978645
5.690652423
5.785422676
5.869537492
5.61104159
5.514099344
5.47090158
5.634463734
5.573363324
5.554485495
5.640053664
5.540495325
5.647886493
5.63108769
5.509798006
5.547258906
5.578673188
5.499839361
5.654353846
5.6031888
5.574812848
5.576670885
5.570304106
5.371179401
5.297838988
5.428826755
5.521095941
5.521675927
5.555903337
5.745759451
5.780331342
5.813207102
5.728768535
5.607970239
5.675508656
5.621796664
5.633282927
5.781315351
5.742994894
5.512967425
5.561318455
5.647964205
5.704217376
5.821756908
5.677474863
5.571423466
5.556859015
5.438619648
5.35658835
5.467128259
5.582332326
5.490453748
5.431454228
5.409456941
5.551845954
5.568968903
5.622001631
5.588109793
5.686267664
5.748130747
5.849489645
5.80909371
5.722197364
5.652475259
5.57334978
5.63351716
5.771313249
5.686990108
5.473731192
5.617338627
5.608531851
5.608161857
5.767031185
5.725274067
5.758899993
5.638192939
5.56802827
5.573078432
5.537575345
5.550738824
5.610384809
5.564211349
5.553806433
5.484317743
5.44647731
5.46153847
5.329277585
5.332843371
5.562906432
5.494388834
5.51519194
5.562792351
5.633904624
5.664922418
5.533581825
5.620432376
5.587902297
5.728811687
5.727472099
5.583487888
5.57903435
5.695458996
5.715758893
5.607438672
5.481967025
5.491580863
5.579839163
5.509704506
5.495646145
5.582189798
5.646552517
5.542080806
5.499405403
5.538637778
5.640597502
5.652267669
5.69703651
5.557704139
5.439592758
5.480340843
5.452078171
5.533915733
5.429155943
5.54017524
5.509332263
5.652299586
5.672184439
5.76000346
5.679021759
5.64675902
5.655699988
5.706494014
5.548866213
5.450296789
5.506535654
5.581162761
5.602061113
5.493828742
5.675582223
5.616401775
5.611656633
5.641595781
5.692228076
5.599588127
5.384160245
5.402490395
5.438302961
5.539492285
5.5705686
5.594023776
5.632570312
5.570365954
5.577895486
5.631859114
5.765389963
5.633507837
5.578744383
5.814941228
5.74369628
5.727038066
5.700311562
5.627993788
5.586403477
5.704211984
5.770147922
5.809472074
5.783126024
5.598156137
5.509249912
5.484179997
5.650772159
5.822302921
5.673430279
5.707445231
5.506377291
5.59316064
5.822810569
5.632010608
5.583920469
5.491177277
5.439988824
5.510334908
5.447510627
5.331777496
5.493219152
5.504996057
5.629999046
5.637557495
5.666762084
5.619368965
5.748632864
5.642280291
5.651208765
5.529839114
5.557592167
5.547738035
5.510404793
5.554186082
5.70289349
5.74350806
5.75685025
5.784896453
5.731187752
5.615234395
5.449102406
5.509041178
5.542309366
5.634776492
5.617669134
5.62299372
5.629985969
5.544452594
5.635779754
5.717788931
5.675544378
5.76258998
5.714317747
5.572512239
5.543659792
5.696948258
5.746489768
5.815696722
5.794647009
5.653359925
5.590279608
5.602003606
5.571435778
5.525397924
5.628290209
5.815530933
5.877045295
5.897974895
5.717028326
5.635333153
5.71466689
5.725176719
5.646326289
5.708573697
5.739123385
5.760444871
5.672485545
5.805607615
5.971829249
5.971981608
5.81856021
5.782747688
5.681147788
5.69950973
5.735705722
5.730769441
5.570200736
5.57602295
5.613670706
5.689344597
5.628757649
5.647981972
5.689946299
5.90567521
5.704636269
5.761532252
5.705222242
5.594731231
5.532644072
5.505338145
5.450831294
5.488146769
5.476215071
5.578675117
5.593977782
5.662516069
5.598115577
5.60825244
5.619044766
5.50617427
5.570232872
5.696642365
5.8501571
5.626700525
5.568273793
5.613440678
5.612267766
5.701474247
5.473702036
5.42299583
5.526748185
5.579772791
5.478111275
5.470103478
5.590114987
5.7626673
5.61290711
5.64093587
5.693897135
5.601451666
5.443651682
5.553249594
5.475381199
5.702062
5.632928636
5.576396216
5.532507165
5.536278587
5.577893232
5.63912553
5.705639555
5.67958107
5.529113777
5.661600242
5.63632702
5.631265913
5.729452245
5.527240067
5.581833725
5.708974595
5.766904595
5.652580468
5.577355569
5.49168419
5.483664212
5.481248772
5.580610911
5.686821072
5.615658488
5.574519439
5.618980111
5.669333292
5.59116235
5.564237177
5.530697701
5.658459241
5.505161516
5.678782288
5.642168904
5.55534655
5.618280102
5.634406602
5.634376096
5.486425144
5.379718266
5.675995177
5.641504985
5.663818333
5.447376257
5.597773615
5.587111121
5.64626159
5.741028111
5.734209857
5.760352233
5.619883655
5.682078598
5.639365042
5.646128085
5.613655313
5.659878367
5.622692922
5.520285383
5.650809905
5.599615705
5.418791954
5.571649207
5.561982
5.586282163
5.425457812
5.577033166
5.606041402
5.544309738
5.617992638
5.626640916
5.620640021
5.544501241
5.593585949
5.585203116
5.444101571
5.445660702
5.519187024
5.688256683
5.538092819
5.583942201
5.55989338
5.563820975
5.590705967
5.522888237
5.700802139
5.603082748
5.663623111
5.581487184
5.450970817
5.465702394
5.644902028
5.551286845
5.578254946
5.499486436
5.480507444
5.511048426
5.502317203
5.508190352
5.632150021
5.639765424
5.575694769
5.589630477
5.56376958
5.648867566
5.601556092
5.647638675
5.656607507
5.591988571
5.534112975
5.481031765
5.56120455
5.666817033
5.726571564
5.780015199
5.634718279
5.640011644
5.686257149
5.633575853
5.425517084
5.426789159
5.383064638
5.351236657
5.341310459
5.491245631
5.629695179
5.715864047
5.716144939
5.727068808
5.791925155
5.807217292
5.652003934
5.658558853
5.550435363
5.617597539
5.578790488
5.694375975
5.597955817
5.473696808
5.554212406
5.476375114
5.477699279
5.543938662
5.53910871
5.515600113
5.634431124
5.789586509
5.738303765
5.679644297
5.768998506
5.776038542
5.768513289
5.781632354
5.769097561
5.722366596
5.741707127
5.63081547
5.682744242
5.69998875
5.597456591
5.496408133
5.668379954
5.659932835
5.581752011
5.665192935
5.698935913
5.610348146
5.641168866
5.659436023
5.551252258
5.648238635
5.551622789
5.673188253
5.703664286
5.835623424
5.835323844
5.830989709
5.837349498
5.744450786
5.590107872
5.537778612
5.622755321
5.618354896
5.450388802
5.547217386
5.487051141
5.44557117
5.638885235
5.640134895
5.58114518
5.525093398
5.658858084
5.531982048
5.644788593
5.683036086
5.615936898
5.757505166
5.885763271
5.666536684
5.673714252
5.610683039
5.461277239
5.431821173
5.424572364
5.341743522
5.443403801
5.644259391
5.604310412
5.606970202
5.645561958
5.780806183
5.755805917
5.632070841
5.642210372
5.557983621
5.513773794
5.700356362
5.636092747
5.641642713
5.552630746
5.596400893
5.617112048
5.630558946
5.756454265
5.788561728
5.788119099
5.802359711
5.683378526
5.667651549
5.803580588
5.777424645
5.669885799
5.576199958
5.492851539
5.609346019
5.663006321
5.750147341
5.636159394
5.57756745
5.724979579
5.561479926
5.597875773
5.583360104
5.573923052
5.624387079
5.752993255
5.792946096
5.744775022
5.743621471
5.674302053
5.615712763
5.605883841
5.605694351
5.536083466
5.519540884
5.535824676
5.503329624
5.617978233
5.704006611
5.582025445
5.587852666
5.517379956
5.601464588
5.612123339
5.552483616
5.477728732
5.618693646
5.759550953
5.66710119
5.423089808
5.446869452
5.414049627
5.529998078
5.560591977
5.537081714
5.567596144
5.607701575
5.44555035
5.496855905
5.677988477
5.852716581
5.864327277
5.69811963
5.707186087
5.71443492
5.73173346
5.849277143
5.64583489
5.618462559
5.646696612
5.542725975
5.627889454
5.6749204
5.713425136
5.644331608
5.684965427
5.579550602
5.649977125
5.661670087
5.661109525
5.625004772
5.570320969
5.600536844
5.641673455
5.668273357
5.51854121
5.4700779
5.574636414
5.626423136
5.614190729
5.697718045
5.628242769
5.549456384
5.635743355
5.653266235
5.633683719
5.504618238
5.513012751
5.545278248
5.521368788
5.491778538
5.420905834
5.403036517
5.387883108
5.534577572
5.582876141
5.534394758
5.53514743
5.682294188
5.605121464
5.521431661
5.530514548
5.592956474
5.548636403
5.575210247
5.587834095
5.601364902
5.608262953
5.648180085
5.668378321
5.694691569
5.709607209
5.576638198
5.51858167
5.642566679
5.724880476
5.710010459
5.749655867
5.755696438
5.670120709
5.772953191
5.699685564
5.615106765
5.539260808
5.453762673
5.606142924
5.451492453
5.584166116
5.626994556
5.48237052
5.488644951
5.513614963
5.705302174
5.60824939
5.540586907
5.531607579
5.542035229
5.614483625
5.574625103
5.59503587
5.469832224
5.431330248
5.435530577
5.60546468
5.738614079
5.754675623
5.599391101
5.519948913
5.498252442
5.4325884
5.528554665
5.482462473
5.350713238
5.497229466
5.527245451
5.585002016
5.687704541
5.560069495
5.481823978
5.469985297
5.56006127
5.649732142
5.622792704
5.510953079
5.525553665
5.455175045
5.575221986
5.603740862
5.635758798
5.490697674
5.551597346
5.576408042
5.689943892
5.65061704
5.599771581
5.679396405
5.721862369
5.585893506
5.625343397
5.630048617
5.747933488
5.786245258
5.666080001
5.590438804
5.64225615
5.637722684
5.660604374
5.734143553
5.679552734
5.504284064
5.492476798
5.598013014
5.767277368
5.739897295
5.603104412
5.504811339
5.680201161
5.656907215
5.705894547
5.742402378
5.734841087
5.717826572
5.70383632
5.634249337
5.689211326
5.618579679
5.540363343
5.447534408
5.424432963
5.377807556
5.577158407
5.540797135
5.463905975
5.537540762
5.646889734
5.573471954
5.661288194
5.82089941
5.784273281
5.739688733
5.734096358
5.499572761
5.354650148
5.538390564
5.421984282
5.455527941
5.580184696
5.503019923
5.437644288
5.507666058
5.48425753
5.448836304
5.477681254
5.469541819
5.52990928
5.673809499
5.678883664
5.746463578
5.760267205
5.730262519
5.751423259
5.781305295
5.620612303
5.474661314
5.532040079
5.634658679
5.63993948
5.346519236
5.470310756
5.682259772
5.741833349
5.651484119
5.683352245
5.829421288
5.866312542
5.661069729
5.616055265
5.621112866
5.651821409
5.706048428
5.60413899
5.431995239
5.583084271
5.606006665
5.526145276
5.555115507
5.658365491
5.692129131
5.638370051
5.709689486
5.816421664
5.817703561
5.719137105
5.723719225
5.780056007
5.736758935
5.558951578
5.453981836
5.470313085
5.477964269
5.754467444
5.878487188
5.765636233
5.677356781
5.59662639
5.626265791
5.560596704
5.603549381
5.608692841
5.665280209
5.565645892
5.567461667
5.6464761
5.738582062
5.732753076
5.654256141
5.620234377
5.666794599
5.773586637
5.688762364
5.601495246
5.596338372
5.591298517
5.593395484
5.614894235
5.769349362
5.527889833
5.634084309
5.674551774
5.596357592
5.576504516
5.633870854
5.581327946
5.578363195
5.698373788
5.671656388
5.652494411
5.73896891
5.485055902
5.559328949
5.657181159
5.642969828
5.685318824
5.582511472
5.514446262
5.483328349
5.514348324
5.548630129
5.553047261
5.544052859
5.629553921
5.482375206
5.454193495
5.482452904
5.54627687
5.565691725
5.671263594
5.698340739
5.721370534
5.650927545
5.585365751
5.459511416
5.541972606
5.609757277
5.677552833
5.691079905
5.664847409
5.628825517
5.499664625
5.436611671
5.575347018
5.723980676
5.790800663
5.910394139
5.916348865
5.715593614
5.635570361
5.544027895
5.704882823
5.808961729
5.582004291
5.569752466
5.639418556
5.670741478
5.705214374
5.772878517
5.799987611
5.66999655
5.53358336
5.521841577
5.632440063
5.671052839
5.797232603
5.784635796
5.742264822
5.704323829
5.629390906
5.614431594
5.736058408
5.603995798
5.562652885
5.434725603
5.53545409
5.633914064
5.577674147
5.540350667
5.502737988
5.77020894
5.644833927
5.573494612
5.563217546
5.552768951
5.63115667
5.531293086
5.509462538
5.569276024
5.56007972
5.640462053
5.627463428
5.657601045
5.666870149
5.853687657
5.837009869
5.748051274
5.743883225
5.833909685
5.834681185
5.705043135
5.709645308
5.467400286
5.567705377
5.617385319
5.656621578
5.543315999
5.526755629
5.621723101
5.612240048
5.533028682
5.592026134
5.595043488
5.696846886
5.848356367
5.720840663
5.724479777
5.608148407
5.637210246
5.670106336
5.607123602
5.489964384
5.50440222
5.600276063
5.471257506
5.448341577
5.501449561
5.501805191
5.61403037
5.627983325
5.634274503
5.604968423
5.571310068
5.654912776
5.526767812
5.664015872
5.713671786
5.582665124
5.655450117
5.718835272
5.601549451
5.514224371
5.669328296
5.524986279
5.575692734
5.53646493
5.516310071
5.43500188
5.386183737
5.57882076
5.575432667
5.672592003
5.645842265
5.645689351
5.645531331
5.493714992
5.437645638
5.562607855
5.556541156
5.538334836
5.512394856
5.551282456
5.624004165
5.594973054
5.398237303
5.516419576
5.549517447
5.487715489
5.461791229
5.447171138
5.547224399
5.641439194
5.669127878
5.676642336
5.529806365
5.519036153
5.510409319
5.440808054
5.421641294
5.442202852
5.501986486
5.479516377
5.41951052
5.506788114
5.614650108
5.560819997
5.464847321
5.533764113
5.427066473
5.454048032
5.512882209
5.498866205
5.540963134
5.55483513
5.617042959
5.558173339
5.567475363
5.497404452
5.339744738
5.400989022
5.549372743
5.557827904
5.549544974
5.565312357
5.449650365
5.441389389
5.541307746
5.647110428
5.595952469
5.42710107
5.347651516
5.491941411
5.529549994
5.625737877
5.543940359
5.652852729
5.559620601
5.404736774
5.488761179
5.493301472
5.479331146
5.451191396
5.567308346
5.388494252
5.373727747
5.374683783
5.34402516
5.330367598
5.391105619
5.349689674
5.444584224
5.45407221
5.454276367
5.279933935
5.342903355
5.452842396
5.359516531
5.407933119
5.500785061
5.473697797
5.557268542
5.729866977
5.559347158
5.562456227
5.628054
5.565258598
5.390816131
5.496797489
5.661920824
5.821149864
5.773937182
5.661444304
5.594257383
5.549177551
5.497466172
5.583693154
5.693578956
5.622778841
5.456522911
5.323935626
5.447168011
5.513979977
5.50044293
5.462304087
5.627683738
5.743985557
5.60696221
5.529546061
5.640911796
5.696128847
5.566531128
5.43371925
5.412597298
5.467519074
5.68547594
5.695161402
5.624495176
5.523439496
5.532665904
5.572259334
5.515856274
5.573461605
5.600606858
5.664448303
5.626176101
5.538129171
5.598003884
5.651419412
5.656697992
5.62294361
5.642845954
5.585832482
5.630931211
5.587966225
5.639664915
5.610100149
5.707150303
5.705018144
5.539601349
5.506510651
5.654341589
5.739233546
5.647222872
5.762696847
5.642463114
5.714067212
5.665003937
5.636762494
5.612264237
5.599768473
5.608829559
5.680322995
5.747681014
5.67871662
5.483180673
5.362469758
5.541200706
5.652574558
5.582527426
5.558780114
5.619338795
5.667060494
5.526271518
5.575091651
5.531767486
5.61560491
5.647694329
5.571460398
5.459280821
5.593286293
5.672536453
5.67416399
5.627207737
5.757764967
5.807005161
5.65334312
5.659909358
5.656101874
5.616083626
5.710170549
5.586789579
5.543414439
5.598460669
5.526713985
5.597283478
5.581044845
5.498690731
5.396106031
5.460642042
5.450280674
5.347443748
5.270176771
5.404370051
5.422590836
5.563513465
5.817720617
5.790141358
5.815484851
5.512076894
5.435729552
5.426722045
5.464049896
5.627504125
5.629084627
5.546804761
5.64139608
5.597174706
5.664560158
5.618744275
5.664035597
5.746738034
5.624746237
5.609810335
5.710819258
5.684300176
5.589315676
5.576074687
5.629197259
5.707727139
5.721830378
5.617674832
5.571550666
5.661808698
5.574699707
5.581760989
5.488614199
5.348512601
5.439908208
5.496420563
5.501925821
5.505783816
5.551429688
5.59581529
5.570011442
5.583997956
5.673357354
5.669586353
5.702167793
5.689651367
5.556106131
5.569176437
5.685519677
5.666819182
5.561937171
5.654441081
5.67327203
5.767630677
5.729132982
5.58197578
5.551008496
5.588270832
5.624924876
5.591333399
5.563933831
5.445895977
5.474352702
5.499236007
5.4812302
5.46119738
5.548070032
5.570335399
5.466146837
5.352977177
5.342973182
5.406271217
5.485116421
5.637903621
5.628944754
5.52913191
5.532542548
5.668901981
5.606445808
5.609852027
5.616274944
5.708930879
5.607846754
5.60149375
5.557136285
5.640840703
5.503971703
5.571874959
5.431434323
5.73864174
5.646473257
5.60370202
5.474771091
5.56507063
5.668338468
5.645145845
5.775767999
5.791467347
5.804705177
5.707789036
5.683663521
5.71084272
5.760989876
5.638122482
5.674012613
5.712461885
5.597423464
5.550802258
5.643769426
5.506425475
5.577307522
5.623633638
5.601901685
5.526495029
5.654129177
5.623726451
5.729860919
5.740626238
5.684046368
5.646378937
5.58040431
5.625032969
5.675628847
5.596119735
5.603185172
5.596086971
5.729306682
5.706818058
5.595684909
5.476638696
5.495709846
5.536163934
5.579740634
5.575879822
5.540822187
5.51997171
5.509727745
5.506526554
5.552942346
5.614426635
5.562348182
5.496387525
5.553263639
5.724684005
5.679057494
5.580118975
5.425308305
5.390510935
5.317177051
5.506811187
5.440830794
5.411863466
5.450144597
5.396689882
5.285448574
5.455303841
5.443615434
5.498370552
5.481638057
5.408749086
5.487072582
5.45926473
5.437114695
5.480932174
5.528315428
5.585804539
5.56178678
5.471166492
5.388031911
5.578204236
5.539352316
5.539997775
5.555987724
5.538858625
5.447665447
5.519371933
5.443962649
5.450377783
5.442503822
5.328358382
5.476160344
5.717841399
5.619680039
5.60694151
5.502324158
5.484648441
5.403119069
5.344437809
5.52761642
5.43779867
5.514840076
5.405950323
5.490051794
5.476377877
5.315999157
5.212401523
5.317792535
5.278678743
5.351208672
5.438048339
5.402572754
5.172951348
5.274019511
5.395857866
5.412368588
5.303358071
5.421977509
5.489836044
5.439843495
5.517924795
5.585734962
5.546626039
5.575861828
5.561131969
5.547036403
5.523525739
5.49878903
5.413185459
5.250984904
5.380571236
5.328843715
5.498405595
5.524614649
5.373004554
5.401545585
5.533194698
5.519091069
5.474390519
5.622445407
5.544153136
5.515514713
5.502360887
5.588040751
5.793663829
5.807694167
5.717647324
5.630094456
5.590119322
5.501697121
5.500202971
5.326007376
5.252639752
5.351145095
5.322318568
5.587105018
5.60070837
5.54458662
5.465945253
5.458367657
5.718694888
5.735883308
5.578263033
5.53530774
5.52102984
5.557222736
5.650862087
5.764425276
5.717315579
5.662606753
5.574705273
5.652577724
5.600541922
5.57593879
5.732131523
5.625516755
5.646529176
5.77928715
5.730851335
5.679646921
5.673328571
5.701150406
5.822397923
5.623763423
5.707311168
5.587168155
5.581540713
5.408586756
5.524286813
5.673246205
5.528276478
5.620840455
5.559347167
5.536291241
5.600272921
5.427696821
5.730582933
5.665016384
5.599150316
5.730763371
5.653106295
5.645393228
5.722038203
5.718383227
5.913772963
5.85198133
5.783105236
5.672914659
5.546488515
5.499411449
5.580931076
5.54772261
5.575218142
5.603850847
5.408458434
5.356770532
5.539794757
5.666411635
5.641252436
5.645799709
5.59420956
5.696544413
5.755135416
5.685208592
5.493801916
5.633903655
5.596104589
5.51684958
5.60189494
5.754509939
5.537887606
5.607998501
5.633291883
5.608842997
5.626071924
5.515152404
5.420513386
5.440172619
5.627647253
5.724093929
5.624196037
5.539842568
5.572549523
5.704214097
5.736299244
5.703226123
5.598450543
5.502653145
5.517251278
5.575817143
5.70871872
5.715782802
5.651659941
5.665378785
5.594236408
5.688498585
5.607252874
5.667037868
5.627280063
5.740377096
5.660483277
5.621496952
5.614771271
5.749525573
5.638499217
5.611800547
5.597013902
5.785555299
5.84121365
5.8024964