/*--------------------------------*- C++ -*----------------------------------*\
| =========                 |                                                 |
| \\      /  F ield         | OpenFOAM: The Open Source CFD Toolbox           |
|  \\    /   O peration     | Version:  2.4.0-MNF                             |
|   \\  /    A nd           | Web:      www.OpenFOAM.org                      |
|    \\/     M anipulation  |                                                 |
\*---------------------------------------------------------------------------*/
FoamFile
{
    version     2.0;
    format      ascii;
    class       volScalarField;
    location    "0.0007";
    object      Ma_N2;
}
// * * * * * * * * * * * * * * * * * * * * * * * * * * * * * * * * * * * * * //

dimensions      [0 0 0 0 0 0 0];

internalField   nonuniform List<scalar> 
5120
(
5.450413999
5.501891146
5.434339436
5.569905043
5.585827459
5.677728692
5.565994546
5.533010321
5.75408472
5.717246124
5.767731002
5.764162848
5.992371111
5.743565447
5.582503751
5.700010503
5.812204824
5.651809374
5.519822883
5.48536378
5.68548269
5.602047978
5.500139741
5.52846209
5.557156
5.269758614
5.441851366
5.488278133
5.313733934
5.398648407
5.624361312
5.688317798
5.69543026
5.687807239
5.637075252
5.535964964
5.494973469
5.432626892
5.625587126
5.765435723
5.668010449
5.553433558
5.567173648
5.505426698
5.492681934
5.590141151
5.625624464
5.622628575
5.669194703
5.668265138
5.696895857
5.67869559
5.508724863
5.526369125
5.565950613
5.517944884
5.483168845
5.553737746
5.458260622
5.570494979
5.554397394
5.632161885
5.645625889
5.534906252
5.568749693
5.589589682
5.74653116
5.761727846
5.849742488
5.624398693
5.631969308
5.549218203
5.465908838
5.474139092
5.64272198
5.727590714
5.656665902
5.850571887
5.694055278
5.400261046
5.638670729
5.493645646
5.304471917
5.39890239
5.668696789
5.529206982
5.463003527
5.56410737
5.63009445
5.596443581
5.465213001
5.587538738
5.553865751
5.637028593
5.68032634
5.873589512
5.750944092
5.577002091
5.530923124
5.604740587
5.303248256
5.29901054
5.325585324
5.385178566
5.468685599
5.459192511
5.539401888
5.560895324
5.621626022
5.818316144
5.672858895
5.632796043
5.533864903
5.463983167
5.55971462
5.379571506
5.378087481
5.505870311
5.383428719
5.380139407
5.617505665
5.473960356
5.647856783
5.639418373
5.589635054
5.500861142
5.554661902
5.623314499
5.558662394
5.419082922
5.431749312
5.582191304
5.580189253
5.536642433
5.690239893
5.745744139
5.657669646
5.449006412
5.383678394
5.485804445
5.796093386
5.697950147
5.480541664
5.475189319
5.462211234
5.427324834
5.34699466
5.397493247
5.473196894
5.384862968
5.28985465
5.381372632
5.482513356
5.55654915
5.341625984
5.399017146
5.626470887
5.649141001
5.45617085
5.610821476
5.479948356
5.40645938
5.496936092
5.458769224
5.477919161
5.396085788
5.314681239
5.36718299
5.434581709
5.543526382
5.664197564
5.67162142
5.504240173
5.57221316
5.620330953
5.662344059
5.609548628
5.464016493
5.648740667
5.530049474
5.383964735
5.357851215
5.613862138
5.587430591
5.616052595
5.628099423
5.684433425
5.536022966
5.402763111
5.371649176
5.59948231
5.642536448
5.625501865
5.711235147
5.724157988
5.687939743
5.671648704
5.574332495
5.539016508
5.438420164
5.497478764
5.474039379
5.461512884
5.621520516
5.579319274
5.430550756
5.351285197
5.423580487
5.539122101
5.331280729
5.26835665
5.482541803
5.574394553
5.561770105
5.663605391
5.693604572
5.654507103
5.585912329
5.628447716
5.496689784
5.574420084
5.591046007
5.479974146
5.454365976
5.437941895
5.579289762
5.617876993
5.597765802
5.441626614
5.482447881
5.636098832
5.622622201
5.595029257
5.61004946
5.453572863
5.408478595
5.471132415
5.422464498
5.433706808
5.703753409
5.680600456
5.600503512
5.602554074
5.470142271
5.365844002
5.385099212
5.485017195
5.722365761
5.633682716
5.610587151
5.764611121
5.552358617
5.397500981
5.486578203
5.512381513
5.46440241
5.492304976
5.563206152
5.600830129
5.59444258
5.605967035
5.638304543
5.605325885
5.564133963
5.712370595
5.522088931
5.48162415
5.376907694
5.266720599
5.445522045
5.494277948
5.485634607
5.569703237
5.644210993
5.508019793
5.613648285
5.626494571
5.597661604
5.550583107
5.611778053
5.445121879
5.302868127
5.430158523
5.36553363
5.35677105
5.547277124
5.540267559
5.399761655
5.364852142
5.291040209
5.436764998
5.481430514
5.467711918
5.354103999
5.49218486
5.46271314
5.48169176
5.330630671
5.440250621
5.483221225
5.500784389
5.594299743
5.640464405
5.635213933
5.632198157
5.544769694
5.615307447
5.606107006
5.60498095
5.649289165
5.55852406
5.502962592
5.488427816
5.508492176
5.677409554
5.71560114
5.778983691
5.669446573
5.646953413
5.621557289
5.599316564
5.578899243
5.583493207
5.510860009
5.644345569
5.607786778
5.880533154
5.709932302
5.699523358
5.675272704
5.583921337
5.388384104
5.464287613
5.430929202
5.471411745
5.551140531
5.618792155
5.500549493
5.565244854
5.71811207
5.314452976
5.447938268
5.454568488
5.467929689
5.475953183
5.557002025
5.571520377
5.643986107
5.642514411
5.563855486
5.609203722
5.536790583
5.559055168
5.569419588
5.584818267
5.53617832
5.322743217
5.55875046
5.583189448
5.46776779
5.686761442
5.652515108
5.61557661
5.536662395
5.45567127
5.432979164
5.459600477
5.504659727
5.496277002
5.699947966
5.635629146
5.617791882
5.81769784
5.640032782
5.58090395
5.588155023
5.530374472
5.56922495
5.555584073
5.630989852
5.523183627
5.55404571
5.66804331
5.689878727
5.545097666
5.571100467
5.569964213
5.50444476
5.519145536
5.514572876
5.52373321
5.597824932
5.628457918
5.626712333
5.747882702
5.647382335
5.670312122
5.537727818
5.634644309
5.740203872
5.490688734
5.615314002
5.750608234
5.781265377
5.723414315
5.696314573
5.663760916
5.704099916
5.660480131
5.656787376
5.572820047
5.634481455
5.636459981
5.524409989
5.593714871
5.536152194
5.675707983
5.803476823
5.650807198
5.508754759
5.463940285
5.440579596
5.55451953
5.663416817
5.549251637
5.610974791
5.587868098
5.859717371
5.701518711
5.679099054
5.618233779
5.512037576
5.422156755
5.332788968
5.491997085
5.556808249
5.605694794
5.662401326
5.603166998
5.505968666
5.736508145
5.764951328
5.691700687
5.652169812
5.493645995
5.533739179
5.535449503
5.473225156
5.473480475
5.420444535
5.419380064
5.508092732
5.54567821
5.65337789
5.571154033
5.594588403
5.48990911
5.736321186
5.671121416
5.638064567
5.348410927
5.332639309
5.487361355
5.553724579
5.563020993
5.574366501
5.620934636
5.547643373
5.455927197
5.57613422
5.541168757
5.518866931
5.484121969
5.518176134
5.358700164
5.380179575
5.352612287
5.289701979
5.477616819
5.513887898
5.664630219
5.55845586
5.50630682
5.74083301
5.561393496
5.530030407
5.496184409
5.51031282
5.412592399
5.563981864
5.469207543
5.42601561
5.577914467
5.487281368
5.505112054
5.414895357
5.420358169
5.698490434
5.608604933
5.507082829
5.633727244
5.627537946
5.355662211
5.322870265
5.637261458
5.689806243
5.601399608
5.539487289
5.48838708
5.527470397
5.545058878
5.378194447
5.497285261
5.531339137
5.591165365
5.523733056
5.513694873
5.453646125
5.422143258
5.550788711
5.534760055
5.717759616
5.725159442
5.663332336
5.612486354
5.567363944
5.485549263
5.606295641
5.627830316
5.628416059
5.339022471
5.448406563
5.608956672
5.494356983
5.47605683
5.578993517
5.648747814
5.728691942
5.583179027
5.474155382
5.772008423
5.483751762
5.493853016
5.55999248
5.604791619
5.562411519
5.550102094
5.617740763
5.542969456
5.639065597
5.63373972
5.658847316
5.575124046
5.542658387
5.505994736
5.694370547
5.620175781
5.887223074
6.168756347
6.082628185
5.514801
5.520965977
5.568693156
5.431807599
5.458555387
5.381061575
5.264194646
5.339217906
5.522480363
5.455011257
5.482047682
5.381599387
5.514289968
5.674184415
5.618295721
5.522105965
5.523043605
5.445202264
5.429322669
5.378451841
5.439734091
5.539927669
5.557964673
5.559030348
5.380102779
5.283911814
5.271282738
5.440179145
5.563428835
5.548364002
5.416278867
5.484219077
5.582790799
5.521064407
5.53048666
5.437392146
5.571431587
5.507298925
5.436253235
5.372296585
5.468359584
5.332884502
5.391440087
5.438405605
5.382519089
5.471989348
5.397265925
5.452969853
5.445428978
5.442901798
5.367995862
5.589599665
5.408755466
5.389862407
5.47239097
5.368394163
5.476751651
5.412324889
5.106876574
5.172640108
5.35404185
5.492403903
5.667405822
5.715582793
5.592728584
5.68471139
5.549381201
5.557462509
5.544546758
5.569688284
5.535188781
5.392258614
5.332529227
5.42255415
5.480420481
5.462521195
5.459052431
5.486164242
5.409590931
5.405622361
5.673766208
5.671525261
5.665029768
5.477656328
5.5544927
5.556317509
5.449000945
5.395248965
5.380153495
5.383940198
5.452384724
5.345225812
5.339345737
5.381129654
5.633825567
5.665408169
5.694182343
5.595342071
5.542286357
5.486821903
5.657380539
5.639618984
5.597038781
5.546585057
5.518489044
5.432683065
5.549105164
5.422393307
5.348842727
5.380843692
5.371833219
5.498988362
5.373913751
5.386933565
5.425652099
5.464759371
5.571679637
5.617328136
5.499977338
5.591883159
5.613229517
5.805703492
5.822481814
5.575147519
5.659490188
5.582535643
5.46471183
5.494731249
5.66385944
5.508528712
5.583212111
5.391617197
5.443423016
5.563201851
5.609093632
5.451481422
5.594726681
5.589512249
5.565725835
5.60342287
5.738038159
5.749985096
5.754580224
5.900478763
5.889163019
5.753017938
5.803536764
5.660194545
5.578610985
5.590637541
5.669436
5.633147467
5.576964121
5.497418935
5.401823372
5.436213629
5.373154798
5.470733887
5.455968332
5.542296323
5.507463631
5.639651439
5.561403689
5.82598427
5.728621546
5.78440825
5.601813924
5.437848004
5.408465077
5.426592186
5.47634003
5.611093313
5.569962408
5.705176062
5.491309719
5.485716905
5.486817999
5.457926076
5.454391663
5.588489948
5.676240859
5.66737307
5.643687804
5.502829024
5.515813758
5.571966754
5.682505933
5.633031366
5.602027112
5.445363308
5.396232619
5.609205319
5.751450395
5.679564849
5.831753633
5.742547464
5.635942201
5.57478348
5.7183577
5.652077693
5.697144666
5.670530472
5.570616388
5.497926855
5.550135655
5.616364293
5.560941205
5.427178994
5.645693376
5.567334865
5.624271048
5.541596051
5.540532642
5.604769568
5.480040046
5.585505731
5.643776669
5.505819415
5.486185371
5.665035887
5.46854439
5.488088311
5.617328487
5.668913158
5.594204511
5.666015328
5.804759118
5.771202332
5.671393109
5.735501084
5.584924216
5.576391294
5.670533244
5.486190198
5.531390144
5.644399643
5.516620297
5.682103733
5.665436787
5.504581033
5.495093516
5.62690419
5.458859516
5.420515969
5.472498887
5.536782203
5.516512913
5.552169901
5.551963662
5.40756034
5.581490333
5.556029971
5.344147271
5.480432609
5.555192771
5.687226976
5.63951208
5.555500134
5.49397149
5.493544492
5.520596843
5.546521739
5.601459064
5.718313239
5.619381036
5.651887487
5.730525478
5.694095023
5.66409723
5.705887644
5.554818356
5.531992682
5.526148362
5.580944035
5.568180583
5.526161163
5.545091758
5.43109671
5.63823589
5.694999281
5.494577705
5.570347512
5.662874977
5.529206617
5.521358277
5.438407161
5.466524102
5.533500526
5.384329299
5.457457826
5.594525491
5.509558416
5.423761268
5.492141477
5.539715273
5.619301035
5.352063798
5.380848293
5.251880879
5.420671206
5.34394734
5.482168345
5.474883206
5.507325952
5.481754356
5.565296739
5.489562305
5.604604421
5.454180281
5.601123761
5.691866335
5.530830773
5.352931548
5.396428479
5.376649005
5.276853054
5.567617435
5.647150259
5.670541659
5.570122534
5.597436987
5.478597327
5.559118941
5.60029001
5.690864573
5.556846702
5.515644184
5.491032703
5.554369357
5.699209495
5.592056479
5.517397141
5.56000949
5.506044595
5.700370713
5.70220677
5.43130134
5.538400193
5.477905886
5.481099381
5.514761617
5.647569277
5.680742531
5.739958867
5.646647872
5.816981298
5.864890805
5.611401096
5.497374102
5.461137304
5.708464376
5.700754161
5.565946049
5.644097113
5.473989524
5.673730668
5.621957476
5.436121753
5.505850658
5.496981576
5.366677667
5.549307223
5.54167354
5.555259202
5.541364957
5.537811
5.328542799
5.27128286
5.288818889
5.450833462
5.447926606
5.465793212
5.691437204
5.708773502
5.673656962
5.621060853
5.526934014
5.615657579
5.548244242
5.557462795
5.630720227
5.693449882
5.423971598
5.431858215
5.492749293
5.580254577
5.786678075
5.517088273
5.425118847
5.372827219
5.308229763
5.21782756
5.33646705
5.39097569
5.310277265
5.326057186
5.314705368
5.465577458
5.439098515
5.504666843
5.471131273
5.507824486
5.634017048
5.85254378
5.730339088
5.632756657
5.609072585
5.517497035
5.484183817
5.655538196
5.607810546
5.43469847
5.559209294
5.53677496
5.530509736
5.722367999
5.624713447
5.658099187
5.504357869
5.43404373
5.485995519
5.450058514
5.523806491
5.554132362
5.442228035
5.476084918
5.429952309
5.418428701
5.408334512
5.302661945
5.223760127
5.446732101
5.419161496
5.446524348
5.473810464
5.49994144
5.565058107
5.392359938
5.495382734
5.520850551
5.698103467
5.650250899
5.513207667
5.512536332
5.666563646
5.6681699
5.538802223
5.390713677
5.414967014
5.503814911
5.450536395
5.417662359
5.506972321
5.557198929
5.435103948
5.375797421
5.433125657
5.507266199
5.601505546
5.571343418
5.392759143
5.271161755
5.31192606
5.4111361
5.422330602
5.385623036
5.43194597
5.431246344
5.605822328
5.58920702
5.743209101
5.703930828
5.602077191
5.548987795
5.601126612
5.454110649
5.369673854
5.424193078
5.469378363
5.457491582
5.310817351
5.496781609
5.466264058
5.554287808
5.641822875
5.703681112
5.567046477
5.315682534
5.35409045
5.454752868
5.545512694
5.49654952
5.536291748
5.654895515
5.495620541
5.472027317
5.521883469
5.640242944
5.53709331
5.412757592
5.792787413
5.857081622
5.745905166
5.67114608
5.578318577
5.424373673
5.603095853
5.709677802
5.782718352
5.803662134
5.549718279
5.473436067
5.499796
5.676249274
5.746594315
5.58907106
5.643335748
5.448670071
5.543491524
5.765815368
5.582487109
5.529859392
5.416096675
5.270573114
5.348442941
5.361633727
5.275366063
5.362902892
5.332037911
5.534733899
5.577591199
5.6024923
5.440925617
5.562891607
5.564566852
5.618279868
5.468650559
5.436599597
5.405089536
5.436062012
5.424290689
5.55313294
5.593717109
5.592289906
5.675419875
5.610662173
5.515059032
5.374002726
5.51645029
5.526572824
5.647466702
5.523572938
5.51181766
5.522225387
5.425913832
5.494225445
5.597969061
5.620921176
5.705283852
5.635459148
5.452753145
5.380666221
5.488753997
5.512035278
5.609408398
5.614032328
5.537891533
5.569581611
5.509516338
5.483201945
5.457940274
5.610495133
5.790301968
5.662721161
5.761569776
5.587005888
5.539923132
5.624475865
5.62495282
5.595796013
5.791244064
5.784238142
5.66189495
5.554618018
5.671410273
5.848196847
5.810877509
5.690084078
5.712863262
5.580921403
5.577417509
5.659322024
5.736057374
5.569991439
5.525507746
5.563128632
5.724937674
5.691506556
5.637520711
5.660882612
5.854523421
5.657630599
5.741972489
5.642135242
5.485805335
5.412531818
5.400827305
5.303768398
5.3043353
5.374840893
5.504397524
5.519178025
5.610046844
5.480497866
5.51471206
5.572616532
5.491096622
5.540547306
5.653980539
5.871975272
5.535469251
5.495159133
5.561652675
5.581345377
5.710905854
5.412323472
5.388467215
5.50478624
5.601924412
5.456319351
5.391724998
5.480986336
5.653909897
5.526502933
5.564111394
5.604946614
5.554096738
5.361335157
5.528868152
5.460582345
5.650844308
5.543526113
5.495944328
5.450788501
5.410541722
5.530340033
5.718571051
5.737217445
5.674187819
5.456378189
5.568244977
5.568627117
5.526819924
5.647419395
5.454036289
5.532055137
5.64070505
5.762932402
5.664326651
5.518688651
5.508635459
5.427418326
5.395748601
5.489577975
5.664283171
5.559751994
5.485030522
5.528325338
5.539803659
5.517984052
5.388142238
5.383547162
5.586718193
5.457694545
5.725165677
5.567339912
5.509046301
5.543745461
5.584453197
5.696441819
5.340979866
5.197878867
5.550697325
5.518035669
5.554626688
5.326109367
5.489832867
5.533465634
5.600909887
5.674615772
5.651243815
5.719872095
5.528543388
5.625861676
5.573142684
5.569648884
5.55089399
5.620602479
5.534451243
5.396266096
5.583906667
5.587341653
5.408219972
5.530653457
5.577800641
5.605242146
5.328595342
5.512945089
5.575512812
5.436277363
5.484878468
5.452201583
5.451404384
5.336663769
5.385943783
5.390248025
5.314842897
5.364512295
5.528313936
5.646790475
5.453808644
5.597568223
5.55536448
5.591911792
5.662618878
5.566319284
5.69577536
5.503518569
5.591329719
5.526595921
5.410220338
5.372985222
5.572604139
5.584116944
5.500907127
5.393645002
5.351840407
5.411682394
5.444706047
5.466176025
5.610038638
5.548323243
5.46172124
5.501615197
5.544269016
5.655765347
5.563341646
5.617083181
5.498075755
5.410434056
5.433407196
5.431509701
5.436052895
5.49134477
5.584439321
5.654049699
5.547447388
5.566599381
5.650327706
5.602734068
5.32387444
5.405204734
5.341922287
5.26513342
5.157381005
5.339592756
5.523436408
5.631809891
5.738428707
5.728220348
5.787779247
5.716927239
5.526046728
5.556290693
5.47272764
5.559922591
5.502952992
5.584683
5.492909537
5.367936165
5.377847996
5.353705491
5.398331713
5.477158661
5.417736568
5.418728677
5.543050826
5.732652079
5.648176459
5.524657919
5.623768541
5.684339038
5.688869208
5.711700865
5.792788875
5.73872922
5.698017177
5.52224271
5.565730102
5.577045422
5.569617743
5.397737778
5.520853697
5.568136172
5.501596051
5.648323772
5.65243752
5.558368559
5.552336401
5.561448125
5.424715848
5.513546347
5.407081049
5.492429741
5.485300907
5.600955562
5.595598455
5.605977959
5.70685657
5.691303523
5.550455327
5.429765442
5.564429613
5.576485399
5.398238591
5.464730824
5.398052658
5.365865024
5.591010951
5.553948251
5.518331681
5.442985139
5.527041314
5.471328759
5.656926939
5.70822629
5.639137674
5.818254058
5.992908767
5.699260702
5.473328469
5.472128823
5.386963681
5.391833315
5.407276192
5.263556352
5.390146969
5.599187579
5.528782878
5.47803024
5.524908557
5.600562833
5.657532791
5.533653455
5.559811988
5.471734645
5.420973886
5.600869461
5.496578517
5.439752125
5.518361934
5.523719337
5.608028884
5.599260252
5.70438806
5.709504263
5.680823782
5.691484076
5.57614098
5.559982614
5.643934928
5.665771332
5.539149675
5.494245389
5.418969289
5.476421835
5.564326807
5.669269017
5.611720633
5.566204024
5.602137974
5.496608094
5.584120783
5.528582533
5.46304912
5.531921658
5.686743226
5.644744047
5.569725302
5.588127539
5.534711951
5.419593156
5.429066631
5.474653729
5.369824907
5.366010395
5.393391087
5.334810343
5.492841657
5.619483764
5.485791803
5.482683371
5.440509255
5.555312419
5.564135824
5.438586913
5.320162582
5.523229847
5.635489321
5.562040075
5.321989261
5.357901067
5.285128437
5.392817139
5.469112474
5.408724789
5.491892608
5.506830638
5.302243795
5.377186722
5.676751953
5.777642586
5.78635323
5.671517676
5.6761743
5.698145815
5.649315731
5.726313101
5.533190865
5.49508174
5.488780067
5.364407824
5.494148879
5.60513787
5.635242475
5.61204976
5.606008577
5.510924702
5.619992601
5.620406576
5.512924048
5.555055087
5.528509812
5.513331155
5.585819727
5.564707256
5.502347246
5.422218947
5.523091931
5.586363242
5.553251737
5.633045983
5.575959166
5.508150097
5.562834375
5.563084962
5.587450342
5.43523716
5.382922305
5.400860391
5.467800186
5.445383725
5.333286675
5.351909989
5.307026498
5.496697607
5.47100639
5.454884581
5.352152409
5.568979648
5.595789207
5.567482525
5.549512589
5.553965432
5.530133503
5.557752981
5.511599834
5.538076457
5.519494098
5.560207156
5.7518961
5.648918284
5.611180015
5.441288086
5.472911087
5.598863173
5.578400532
5.559137103
5.686336874
5.648949366
5.566376512
5.653138939
5.637736106
5.468683086
5.33166797
5.310775441
5.489225238
5.336237129
5.481294848
5.602713558
5.527510238
5.628549708
5.556122877
5.758322686
5.521693662
5.351159006
5.455644477
5.548622922
5.476760197
5.448105239
5.48856102
5.345747479
5.347851494
5.384096436
5.530469473
5.693629459
5.676524558
5.590312405
5.50702953
5.473964074
5.392489886
5.476998758
5.391689847
5.266594509
5.374439656
5.444254081
5.600744406
5.680064373
5.663148479
5.533886551
5.441166133
5.444777007
5.492813841
5.473792362
5.437712576
5.546517904
5.421829657
5.512847244
5.495015303
5.628649352
5.388071464
5.503432849
5.574289317
5.696578796
5.627132533
5.528831492
5.572323286
5.67419992
5.431920495
5.518621567
5.59519713
5.727717036
5.674794577
5.593764883
5.513578582
5.523201424
5.552161383
5.536195728
5.630851593
5.659878487
5.391598093
5.331124906
5.418743324
5.622144421
5.631828195
5.484456286
5.472109811
5.56995853
5.570102834
5.565343956
5.648844828
5.573009688
5.557476082
5.53624382
5.546125451
5.598706728
5.57355348
5.535428255
5.409345921
5.341574609
5.231026674
5.427173765
5.419015207
5.362908885
5.483661414
5.54181681
5.421358489
5.487681186
5.745112871
5.659329035
5.597616325
5.620262509
5.44088635
5.241049603
5.403781428
5.248545443
5.306667867
5.460499898
5.337522463
5.269455244
5.411413467
5.305816769
5.277067748
5.333508164
5.404989009
5.460442451
5.574690734
5.637454856
5.650492328
5.663984184
5.658294161
5.752183026
5.717064444
5.585029042
5.35779049
5.367024786
5.488123416
5.494478195
5.26153423
5.405475749
5.479960078
5.613996933
5.547271471
5.551939294
5.643774757
5.687265707
5.501523892
5.472516555
5.459968524
5.52700527
5.619065819
5.501199225
5.379563739
5.543268605
5.560495456
5.395924595
5.478302543
5.508106322
5.522902041
5.473366978
5.551258419
5.687378905
5.73923396
5.558781266
5.717209452
5.730420781
5.647698127
5.478613438
5.390277465
5.413807003
5.426421308
5.691969879
5.801436648
5.64289349
5.562495943
5.509016961
5.520785462
5.412191121
5.408221219
5.449363632
5.708115735
5.609096286
5.566229535
5.65872844
5.701828668
5.756869096
5.617406401
5.520682689
5.550934566
5.67889797
5.580781862
5.510083914
5.550560256
5.537952118
5.55102291
5.547298188
5.666735513
5.399922668
5.545754818
5.666778419
5.50584946
5.514712343
5.552780179
5.53040677
5.491823694
5.577553386
5.624939121
5.562324324
5.615565404
5.430379317
5.514366817
5.618495518
5.669622835
5.707984987
5.487902125
5.42089851
5.369128369
5.379638179
5.364727379
5.389146492
5.358404242
5.509622459
5.439967131
5.336991879
5.389282942
5.497002681
5.505442233
5.549297759
5.581607286
5.659221945
5.596448393
5.482935135
5.352161737
5.412773866
5.48113704
5.544255554
5.553054329
5.544466118
5.571109713
5.357449049
5.353569847
5.431448387
5.531524901
5.704841169
5.724811751
5.811200627
5.601365912
5.529575329
5.404228216
5.626838461
5.678237555
5.358543466
5.364552767
5.485397044
5.551005701
5.532269795
5.567587513
5.610181642
5.493626238
5.41686608
5.383196122
5.578959409
5.67380647
5.796076877
5.761047646
5.733315653
5.684965317
5.573247174
5.478947269
5.593289914
5.507837638
5.517231356
5.292780205
5.374484832
5.466335972
5.397790214
5.433171452
5.41463354
5.673153704
5.520456713
5.550828394
5.51782244
5.496363363
5.609113461
5.505653738
5.494207006
5.519857287
5.571571029
5.575145212
5.45155493
5.474802512
5.528451724
5.718130172
5.637574851
5.606657978
5.601157537
5.664127363
5.771583038
5.649295897
5.660405637
5.509936122
5.570550995
5.635914305
5.650968201
5.562015633
5.540911702
5.596977828
5.55893778
5.510509694
5.596714122
5.6278855
5.707439895
5.881309706
5.718657504
5.688835345
5.667867671
5.682739328
5.626748587
5.575089661
5.507817715
5.4046299
5.510517769
5.378177983
5.353552223
5.417861346
5.455700433
5.563913904
5.656097558
5.632003036
5.593781096
5.518723632
5.57492138
5.383327732
5.560818131
5.596373065
5.434944445
5.560972601
5.665104514
5.543607309
5.385287493
5.613870735
5.466475702
5.486731736
5.477211839
5.444835957
5.363745304
5.330208788
5.496805296
5.439574919
5.613497705
5.577199107
5.572124944
5.576853522
5.456293397
5.368811705
5.497561036
5.486284355
5.482233024
5.458468327
5.541046275
5.571154199
5.567588906
5.408915235
5.534704554
5.579636829
5.460003567
5.441517748
5.452107127
5.518427686
5.538205328
5.588834468
5.674274003
5.460933256
5.43578087
5.444010488
5.395135313
5.33358837
5.357205285
5.351259561
5.36010772
5.332896779
5.455837493
5.600593513
5.530222239
5.49944338
5.438447855
5.299796414
5.420537441
5.570260088
5.490926885
5.407057708
5.460613524
5.560376014
5.498835581
5.469816629
5.434091963
5.261695054
5.34022742
5.510074429
5.499050936
5.453229077
5.533613392
5.45595478
5.397175475
5.443934042
5.583144517
5.517538386
5.383798073
5.315687756
5.52794099
5.49017463
5.571079872
5.50976658
5.608369616
5.555015547
5.350588373
5.408596934
5.390921944
5.37902859
5.290507844
5.543960855
5.384727777
5.389588448
5.382468266
5.328700935
5.316719561
5.382411001
5.304756566
5.33488761
5.37534797
5.308159059
5.168577267
5.169183194
5.321243799
5.211038745
5.245539102
5.377098956
5.38107382
5.460493446
5.695665223
5.557677236
5.532399984
5.592668571
5.503872973
5.254447293
5.317804112
5.470593535
5.629340427
5.621846678
5.529232205
5.484022756
5.478417533
5.505711357
5.602293443
5.693362074
5.606316931
5.377356858
5.227288674
5.395940439
5.550208393
5.4003607
5.351748457
5.496014104
5.586299855
5.467142146
5.375366571
5.48629654
5.554280951
5.500377386
5.304953414
5.255938044
5.310867449
5.538466956
5.579246641
5.532421249
5.522253583
5.570099218
5.531730259
5.468355828
5.503293606
5.486665484
5.56421945
5.521555231
5.463091575
5.540406057
5.63597218
5.564234673
5.50133437
5.525577106
5.485565203
5.571682996
5.491099469
5.5344819
5.544131148
5.666905465
5.582065221
5.418187511
5.442532465
5.576766192
5.659823086
5.585880844
5.74889757
5.668629651
5.699430221
5.619974189
5.469053265
5.477104476
5.476264128
5.466822524
5.577060236
5.71904278
5.54725369
5.319137985
5.188150781
5.328227032
5.525731241
5.561321716
5.533831707
5.650855081
5.635112933
5.372756166
5.418950353
5.419068671
5.532180091
5.542963126
5.40491315
5.288952772
5.499925271
5.677804908
5.601109449
5.48156233
5.667489603
5.703970959
5.547842858
5.534525697
5.537010342
5.504484211
5.542002163
5.448026281
5.401738003
5.539683088
5.492706348
5.521519359
5.505275517
5.401708126
5.265383782
5.362647786
5.360683864
5.284020529
5.210002374
5.298829015
5.336568578
5.532415742
5.802875401
5.844330604
5.863325862
5.52091622
5.459779312
5.402789237
5.459613495
5.585765136
5.545237048
5.426143441
5.476982486
5.472104089
5.431707229
5.363252208
5.53049348
5.632590191
5.456788555
5.498261248
5.551938468
5.576682394
5.467808064
5.489061981
5.549641492
5.652083961
5.639201851
5.583645948
5.567132286
5.624448424
5.504214396
5.523858595
5.464189365
5.376416306
5.468017798
5.419345052
5.445673788
5.501698116
5.584864629
5.6086127
5.543078465
5.523995717
5.558398997
5.544816432
5.575987656
5.577037836
5.448485708
5.485535242
5.588504867
5.515729709
5.460809928
5.647163442
5.679149505
5.711861866
5.590034118
5.487101834
5.441799572
5.496137863
5.48892034
5.502732173
5.434007493
5.404601511
5.38599009
5.468543158
5.463591037
5.373673865
5.415567101
5.408836443
5.303664257
5.309218391
5.316348511
5.382803146
5.419548769
5.574056234
5.562646359
5.417821899
5.38246976
5.504311604
5.462325683
5.460722701
5.521994129
5.567318939
5.622375407
5.654827956
5.518475651
5.592630357
5.433412763
5.506419054
5.423167818
5.608407765
5.520451215
5.572489246
5.382224823
5.416526589
5.531984836
5.639493829
5.80995016
5.768503991
5.752915347
5.671108866
5.575242988
5.583704178
5.588654647
5.516109752
5.58534525
5.626443633
5.484491033
5.39585671
5.520754727
5.403007078
5.475718827
5.470457465
5.476752058
5.435639266
5.506662225
5.47676002
5.545763912
5.637638358
5.573829299
5.519199848
5.547720956
5.57925509
5.592692498
5.471725636
5.5092195
5.514406184
5.627001347
5.557906052
5.491041287
5.422693801
5.400341086
5.447055948
5.558847987
5.537638655
5.581318475
5.504094
5.427231209
5.421646705
5.537743752
5.562274964
5.45936977
5.399479282
5.544984931
5.686887154
5.589493067
5.545198638
5.414894408
5.334586843
5.188142076
5.342653845
5.256896125
5.295777835
5.357211915
5.287859628
5.194365504
5.348153333
5.330731914
5.330399664
5.370308999
5.319254544
5.469722461
5.388612663
5.3622776
5.429567561
5.506249571
5.562107447
5.526494213
5.440327074
5.314337184
5.466476185
5.46600027
5.464831638
5.49511531
5.430417615
5.314075357
5.374331362
5.250433021
5.345480201
5.356951732
5.271647648
5.355876388
5.604966794
5.511822412
5.517119719
5.387080882
5.412373005
5.39535826
5.239931583
5.4867209
5.470495219
5.50696327
5.328163532
5.407769162
5.421389882
5.304480321
5.161342999
5.256255272
5.260188899
5.317421645
5.345699985
5.346934847
5.108425231
5.156687075
5.322600079
5.438160068
5.321541994
5.405241723
5.509881169
5.435987885
5.424268901
5.463315658
5.452488343
5.525064577
5.494926493
5.450485466
5.421936157
5.412734127
5.289157086
5.157355272
5.336490423
5.202929295
5.332724574
5.384491629
5.262202035
5.335775071
5.534309656
5.536274155
5.470354576
5.562116458
5.426073646
5.359777407
5.319839052
5.417243587
5.606361773
5.660129318
5.657851404
5.542178762
5.496324427
5.334542125
5.322804533
5.167451228
5.088059483
5.200930168
5.147893566
5.425285915
5.421036747
5.366800095
5.333920402
5.330872503
5.669159707
5.655343988
5.553917528
5.395640068
5.422235925
5.506805503
5.58185061
5.669935092
5.628919075
5.53305231
5.461351607
5.55338018
5.50175386
5.408506824
5.590158448
5.546971977
5.537396524
5.757481296
5.733739395
5.63382428
5.595961295
5.596590337
5.638472726
5.527643311
5.661709269
5.547963924
5.515091377
5.373381399
5.486288455
5.561388634
5.40256145
5.475160913
5.358829412
5.317845535
5.392009479
5.247977058
5.5585131
5.431800405
5.410304874
5.670443905
5.550789562
5.50280216
5.581235808
5.617488907
5.817323267
5.844999154
5.828145085
5.670740829
5.451017318
5.41090925
5.4702653
5.472969419
5.536356541
5.510634549
5.342051922
5.252496131
5.442972208
5.533128111
5.614893904
5.536494502
5.507839447
5.577553907
5.672672495
5.587814535
5.427064128
5.559755376
5.514967768
5.472703172
5.488349579
5.624613353
5.379045587
5.57409087
5.62630279
5.666471798
5.647420814
5.467176145
5.393339565
5.346666441
5.56300894
5.681356556
5.596876628
5.519724235
5.584242629
5.669199473
5.688038116
5.627166879
5.474635361
5.434793531
5.444114731
5.579493221
5.657825005
5.623781651
5.535250329
5.523970988
5.509449934
5.633086919
5.659960989
5.75911664
5.648384121
5.667097108
5.630184992
5.499108916
5.540942398
5.659720266
5.432924536
5.495949902
5.524521334
5.581926861
5.66467805
5.708581169
5.788666558