/*--------------------------------*- C++ -*----------------------------------*\
| =========                 |                                                 |
| \\      /  F ield         | OpenFOAM: The Open Source CFD Toolbox           |
|  \\    /   O peration     | Version:  2.4.0-MNF                             |
|   \\  /    A nd           | Web:      www.OpenFOAM.org                      |
|    \\/     M anipulation  |                                                 |
\*---------------------------------------------------------------------------*/
FoamFile
{
    version     2.0;
    format      ascii;
    class       volScalarField;
    location    "0.0007";
    object      Ma_O2;
}
// * * * * * * * * * * * * * * * * * * * * * * * * * * * * * * * * * * * * * //

dimensions      [0 0 0 0 0 0 0];

internalField   nonuniform List<scalar> 
5120
(
6.122036987
6.107809241
6.170029031
6.210717456
5.972666903
5.94189564
6.025675869
6.009516847
5.926487505
5.945582085
6.080191625
5.892670503
5.7662734
5.803289949
5.686400406
5.804653532
5.757163225
6.10018232
6.198588211
5.987939315
5.545919011
5.589535467
5.629526619
5.888127993
5.930929795
5.976730874
5.954133482
5.877664978
6.012273725
5.575645828
5.6898361
5.984979787
6.146100084
6.159403321
6.190034514
6.246536079
5.805089089
5.649463632
5.779426051
5.86950654
5.813175462
5.820701664
5.705481448
5.809532415
5.418510635
5.689306846
5.870198029
6.039548657
6.002180238
5.695249106
5.753782205
5.766101841
5.815573659
6.07391468
5.61093676
5.588106672
5.439684016
5.516380517
5.635467104
5.681985374
5.480291832
5.512570298
5.540586695
5.890119621
6.077953283
5.878806444
6.082302396
6.056641307
5.683267063
5.605806193
5.574756352
5.488552017
5.573168434
5.340433086
5.354851264
5.593403209
5.534352615
5.548640009
5.669830635
5.48201922
5.996076513
6.34322932
5.941543732
5.741274781
5.674225258
5.771695697
5.677183924
5.655912974
5.802339193
5.75536114
5.88956073
5.988864659
5.897553125
6.011597746
5.803916191
5.857607228
5.820142508
5.663660214
5.474501352
5.728339112
5.824066685
5.827769919
6.167044459
6.174295783
5.890678105
5.793867219
5.750138723
5.66541626
5.641416849
5.776209264
5.995099717
5.705475446
5.99244636
5.789363381
5.59736896
5.785096009
5.907683673
6.147530767
5.864634421
5.688809213
5.935925841
5.969952931
5.893857134
5.680136749
5.853019073
6.036915421
6.059414801
5.993274949
5.741719353
5.436189942
5.756092165
5.752608798
5.577790967
5.724822088
5.935169136
5.638788056
5.644974131
5.703628313
5.843331573
5.960963976
5.591908669
5.602971635
5.78750486
6.005779475
5.962706383
5.972049822
5.977368919
5.7720001
5.406141889
5.421167322
5.335348288
5.402647014
5.572903686
5.544819747
5.483351861
5.635352621
5.702865431
5.667586958
5.587949383
5.723620394
5.587229976
5.366362351
5.489009602
5.743215113
6.06793915
5.826031457
5.521504902
5.032055754
5.307179897
5.352081317
5.522728233
5.713983569
5.983021662
6.107613014
5.97172468
5.658753434
5.308702192
5.823879082
5.93587838
5.769468526
6.039180026
6.221214803
6.119114996
5.865629942
5.800723431
5.749872969
5.60755341
5.773455497
5.847130973
5.694504263
5.826476849
5.902429175
5.840989318
5.515377996
5.418294226
5.467310001
5.580351433
5.609606203
5.613062246
5.881341598
5.380364152
5.720325978
6.128427938
5.929111839
5.753353596
5.425859148
5.42226619
5.532463174
5.84174117
6.26509115
6.309402742
5.708951677
5.550057234
5.49628978
5.544493589
5.34894702
5.474077116
5.683316616
6.205860642
5.626753796
5.701272579
5.728415929
5.375052955
5.354411187
5.352189395
5.717117417
6.055135939
5.873008969
6.074219597
5.714764956
5.603416297
5.695426882
6.027541492
5.803347197
5.619499199
5.590237367
5.883225389
6.026478492
6.021155033
5.874403194
5.440546596
5.358180166
5.611286492
5.789069158
5.666040047
5.485788184
5.599182742
5.497882482
5.391324245
5.70665149
5.81225745
5.521549408
5.427456659
5.360406047
5.459068947
5.513515234
5.709415524
5.641046779
5.592483786
5.525363843
5.937042921
5.776041383
5.535182464
5.855066939
5.717727834
5.745867211
5.689516495
5.536882822
5.489810588
5.620750466
5.795971253
5.73511329
5.679827143
5.87470013
5.731762874
5.789409648
5.604556211
6.043405161
5.795673274
5.834381987
6.27279275
6.450708315
6.297524006
6.186193998
6.167384607
6.168548758
6.337054559
6.199201383
6.124198128
6.273374015
6.008721164
5.709897232
5.769067725
5.921532303
6.106277908
5.708231692
6.108034594
6.443181556
6.159517596
6.084281672
5.941399619
5.744579575
5.683605088
5.714020327
5.993141565
5.94464124
5.467262165
5.299769542
5.359633367
5.59159934
5.849835133
5.914442813
6.005332741
6.063992669
5.988510575
5.903332176
5.697314353
5.866220406
5.936428597
6.072968323
5.669124699
5.558384858
5.610292263
5.748515709
5.830691731
5.825270697
5.74448321
5.785494776
6.216160588
6.120617023
5.911064377
5.760906139
5.915481982
5.866159171
5.987995785
5.903950336
5.898161068
5.863540844
5.854047044
5.971827103
5.905174586
6.087732375
6.116070141
6.095392722
6.398874628
6.164147442
5.961529611
5.944822142
5.898472284
6.159584763
6.172788549
6.075051634
5.872030977
5.567108239
5.89356705
6.25625648
5.85688941
5.937685894
6.053984835
6.095133226
6.09293039
6.027605353
6.037876863
5.988413556
5.835952317
5.898692119
5.68570232
5.539857888
5.151956991
5.239529755
5.553049405
5.680202878
5.722547409
6.034467236
6.15103141
5.736803566
5.836424561
6.076423659
6.412572687
6.531232391
5.777319186
5.859292525
5.98041832
5.444156931
6.098715782
5.524893303
5.603071874
5.716234277
5.490838394
5.839022683
6.102409622
5.939603863
6.101224108
6.303074803
6.13804005
5.977687642
5.863693316
5.988609061
5.843467184
5.873617354
5.746746225
5.599365984
5.658371887
5.91068768
5.708399125
6.113276765
6.145715669
5.846704516
5.730546112
5.795548906
5.914328718
6.267809311
6.069384896
6.328923874
6.298972978
6.144590746
6.271039051
6.060536407
6.045085885
5.890252434
6.015501114
5.981987416
6.071666963
6.086831725
6.087463999
5.983678481
5.796849301
5.93858445
5.891665588
5.851013648
5.741620985
5.638774734
5.888035163
5.606332805
5.646159727
5.469380658
5.758837763
5.992981293
6.241885285
6.31472591
5.751311266
5.627348563
5.467420502
5.596579346
5.945260841
5.846974154
5.785949198
5.759781246
5.999378277
5.990079559
5.879382889
6.062090702
5.855013963
5.569543829
5.548585117
5.663074091
5.682138087
5.71973604
5.612575305
5.577416823
5.928008886
5.991760687
5.94282942
5.795198382
5.560086514
5.925459811
5.601255571
5.978176071
5.980751065
5.726662032
5.622342791
5.407512678
5.305450031
5.494463885
5.759209568
5.739063625
5.866732631
6.01381885
6.004758587
5.93676795
5.825209081
5.878547015
5.785398954
5.862437431
5.65683361
5.605423277
5.689406694
5.726803421
5.614988785
5.972874023
6.089617637
5.982737958
5.956775567
5.536803036
5.17141208
5.309401647
5.579029793
5.546198956
5.648531282
5.770865025
5.819487545
5.900146677
5.928124078
5.805260012
5.831679737
5.716469121
5.77292521
5.946050354
5.934724827
5.67294149
5.449834896
5.312795831
5.615444569
5.587862938
5.2797556
6.08477945
5.82111982
5.650647045
5.674251149
5.645464287
5.795635151
6.041787966
5.872754542
5.542981023
5.417485079
5.726665572
6.173507306
6.046945059
5.848611203
5.723909811
5.800995972
6.032097473
5.85044792
5.667599752
5.727573308
5.617350103
5.755127849
5.925979336
5.782715193
5.619397313
5.651072886
5.280598796
5.495606775
5.563808966
5.932881684
5.677380396
5.658631086
5.866278852
6.465367562
6.085720524
5.840356576
5.902618475
5.876781988
5.759650993
6.087997517
6.194365997
6.237757204
6.255234359
5.789890717
5.699048333
5.87457915
6.08351515
5.817397357
5.501415745
5.427641569
5.441899468
5.536316753
6.135927218
6.094726003
5.885027821
5.875940546
5.914635131
6.080016539
6.105445728
6.085415161
6.161877323
5.819518278
5.896644689
5.753980783
5.710778588
5.839105496
5.770725552
5.651129739
5.42135909
5.6743425
5.789649941
5.689293748
5.787307292
5.605116676
5.662314175
5.717804896
5.702525358
5.593921786
5.371192571
5.611185723
5.656561108
5.574414031
5.780004459
5.840437405
6.040619276
6.046846748
5.702617996
5.761405705
5.710132216
6.081530607
5.972950211
5.86264496
5.802041596
5.668408977
5.664960194
5.908061408
5.86830372
5.391570644
5.610140852
5.907056663
6.528077752
6.549273912
5.9841797
6.136955939
5.936509623
5.990908842
6.020978375
5.721638054
5.912784761
5.948997078
6.03432278
5.8267982
5.998547846
6.163778577
6.024648276
6.074721587
6.145852693
6.26183815
6.014647847
5.904555492
5.770786375
6.062388237
6.233321203
6.057463153
6.17535972
5.689374414
5.785948112
5.841951708
6.056064151
5.809513156
5.937133845
6.058997143
5.95622076
5.55995476
5.452056222
5.53438892
5.983318855
5.88691818
5.66939939
5.993352644
6.157985396
6.172714501
6.00252023
5.791151565
5.856480976
6.197093592
6.223633746
6.370796096
5.89370612
5.658207987
5.735870044
5.748597933
5.893861822
5.979298807
6.415088117
6.301628002
5.977920412
5.920111731
5.816159366
5.333237633
5.405995873
5.580355664
5.759537804
5.690260814
5.68187369
5.736448074
5.649376323
5.622819867
5.871117868
5.571633384
5.851898328
5.831518976
5.939812699
6.077471638
6.211339788
6.16457378
6.29024203
6.335615403
5.912426856
5.86584331
5.984986123
5.946158673
5.854594164
5.621440203
5.610332885
5.458440751
5.516733707
5.827030638
5.918089406
5.666629212
5.652701412
5.932466853
6.111171498
6.081240376
5.770969722
6.003045358
6.129200665
5.84221559
5.836468625
5.775786387
5.817796605
5.918872195
5.571617898
5.466335268
5.427208793
5.79968279
5.891104642
5.940663878
6.089477873
6.168559263
5.841404699
5.699203008
6.045439724
6.401902715
6.445739224
6.36563436
6.213259198
6.425674136
6.200608054
6.353383627
6.609649889
6.323392096
6.035807866
6.183350388
6.040850221
6.002394448
5.950594142
6.040472673
6.063432982
6.020724897
5.930576289
5.877250679
5.714811498
5.380899031
5.540714016
5.698586913
5.404868947
5.421553818
5.822146531
6.009890912
6.084402482
6.215857577
5.756733386
5.826246094
5.898584903
5.944008691
6.105057358
5.908573726
5.785167966
5.600455611
5.728288083
6.40114152
5.707523364
5.777219778
6.087699825
5.828468127
5.708627416
5.644841705
5.690963886
5.827209872
5.670245979
5.622676631
5.581638194
5.557857437
5.688015784
6.178084293
6.216118374
6.070782326
5.785629536
5.7511582
5.779141222
5.950141583
5.917247205
6.113379012
5.670005865
5.614108943
5.821663007
5.620920734
5.558803085
5.830034431
5.863477307
5.987128939
6.076524436
6.010790486
6.308120456
5.747789985
5.94900769
5.982170631
5.935132015
6.128477946
5.833169608
5.835471384
5.595021149
5.99584737
5.929051917
5.76340932
5.792872968
6.35121987
5.89813974
5.760422438
5.778803708
5.875418943
6.062472285
5.843517387
5.870707074
5.805254628
5.68720119
5.639618776
5.660516304
5.614170609
5.937931146
6.080489932
5.903040644
5.851704784
5.954384089
5.870965699
5.523710973
5.583036074
5.750601864
5.735876136
5.674187798
5.632986715
5.471551993
5.493282302
5.573675653
5.765741503
5.627835428
5.265032932
5.58410435
5.647211217
5.760657156
5.819035983
5.792706916
5.881595827
5.787409581
5.960379017
5.784616587
5.752088152
5.745393775
5.875152956
5.72467182
5.985301908
5.946304402
5.944582332
5.801965077
5.271976284
5.518667602
5.641228685
5.604308473
5.629757126
5.631394335
5.400740927
5.449852971
5.737734936
5.943485004
5.411860859
5.378623055
5.925907702
5.886715233
5.893852968
5.487427882
5.394179589
5.289932928
5.600737379
5.690441407
5.577947766
5.402311326
5.81491774
5.941861174
5.720119704
5.706466046
5.921634973
5.647491831
5.859625632
5.581923583
5.554737539
5.937267107
5.824895381
6.011021668
6.157991901
6.289385931
5.893811594
5.431368559
5.357313398
5.63524637
5.596769208
5.817307932
5.645225436
5.734924634
5.865721094
5.683208845
5.927462063
5.637144434
5.608518227
5.511485578
5.428351399
5.229110929
5.526507831
5.633004016
5.763021535
5.590764325
5.717552416
5.801794865
5.702527577
5.864511441
6.102269134
6.180274641
5.855371804
5.684809828
5.761283682
5.761991322
5.601598081
5.447563604
5.946961408
5.767160184
5.78574509
5.911692433
5.957364446
6.058673995
6.321234064
6.133272144
5.895311115
5.882013608
5.90129682
5.919090677
6.328819871
5.919431748
5.781555727
6.013545484
6.201199702
6.098654946
5.944298918
6.257714474
6.127593204
6.232031288
5.904256785
5.850547158
5.927386297
6.321418328
6.160804047
5.761578955
5.73896885
5.823599307
5.961558572
6.040407541
5.954028341
6.356148341
6.135170042
5.853141059
6.088470621
6.029338737
5.810610212
5.758618919
6.12398146
6.139853148
5.908015751
5.591025967
5.780445354
5.830694795
5.957300664
5.991408952
6.138144551
6.114530721
6.172882189
6.008403568
5.960843985
5.850856929
5.678256453
5.808908431
6.022118452
5.870565321
5.672774639
5.547316225
5.651116641
5.410619347
5.673218437
5.95242244
5.773673401
5.736977398
5.846144109
6.090592899
6.08342369
6.036217267
6.043878023
5.860292239
5.830565562
5.986931822
5.827717996
5.823470044
5.803348163
5.912316617
5.852999055
5.815963271
5.757974154
5.828515539
5.695810197
5.777135748
5.848329738
5.961660229
5.941201716
5.91184116
5.846816677
6.093072431
5.829676453
6.217388277
6.273873659
6.162625699
6.203769804
5.620616442
5.961372661
5.623606506
5.931615333
5.777624613
5.811647351
5.978333943
5.866149382
5.639862682
5.829761611
6.044972067
6.037692529
5.889995273
5.749612878
5.811687647
5.997306359
6.136997264
6.28922744
6.413313029
6.16832649
5.778219314
5.667679123
5.687698684
5.709863328
5.634595071
5.578085714
5.407753542
5.546981245
5.914549197
5.854383693
5.555823448
5.881345457
6.033233122
6.090643661
6.246749457
6.07162487
6.356642993
5.896642687
5.447625265
5.690617551
5.879403274
5.825777214
6.180463931
6.024244534
6.008989963
5.912481419
5.748349169
5.798242309
5.672730337
5.533743682
5.657810807
6.153726262
5.956386265
5.909631342
5.679753065
5.749288259
6.023954425
5.771753576
5.755387459
5.700437082
5.932109549
5.994501607
5.711101916
5.519228236
5.891761391
6.052164705
5.95611627
5.866348152
5.85619622
6.177240069
6.326520223
5.844230553
5.751939753
5.716965933
5.962454676
6.080403128
5.736049721
6.112530082
6.30479285
6.377571093
6.532716344
6.206264374
6.204760498
5.983978083
5.706022159
5.498100842
5.624574117
5.613196152
5.934024983
6.022222059
6.140022295
6.02415
6.160590542
6.17536923
5.862007246
5.957328746
6.015235595
5.995127945
6.215384346
6.530928408
6.63612469
6.541658366
6.468441265
6.142534214
5.66101567
5.91079033
5.870436762
5.775139164
5.693432561
5.91358751
6.64798974
6.436668592
6.193577639
5.929302854
5.992951035
6.016811659
5.799644639
5.536846108
5.657965104
6.094694065
6.090073522
6.300201516
6.405794687
6.57062233
6.308736273
6.060583061
6.0650692
6.133552499
5.993386534
5.724648209
5.579821348
5.746781296
5.76694987
5.600815624
5.46329387
5.693916471
5.783980795
6.114954385
5.909494488
5.866380122
6.018278076
6.239275615
6.278690713
6.097014435
6.179563581
6.357953314
5.933891445
5.909999845
5.899804942
5.903253386
6.05401493
5.952603056
5.789663074
5.586101498
5.691118507
5.850426835
5.80411393
5.979859911
5.890205898
5.873188639
5.752460947
5.697795026
5.74781065
5.604754643
5.630976654
5.49540778
5.587443955
5.841232992
6.168124716
6.193754983
5.932588023
5.947077809
6.077067894
5.793305414
5.753527327
5.664111792
5.576305529
5.896415542
5.929001308
5.860291644
5.800745593
5.99618944
5.733038918
5.450651345
5.643158962
5.718816284
5.847225566
6.068791897
5.98251999
6.146866563
6.22072029
5.887708314
5.81043098
5.958566029
5.836878948
5.663604092
5.797314519
5.473739328
5.705780713
5.807479294
6.004673262
5.779715654
5.842793176
5.961240802
5.97339904
6.171754726
5.882568163
6.167390621
6.048495643
5.912546887
5.724846738
5.64669557
5.955360013
5.748120113
5.90913112
5.856249878
5.493123113
6.0410123
6.154759227
6.121461028
6.12128381
6.187311772
6.010817316
6.016160591
5.777361954
5.843140158
5.993632113
6.043352096
5.895660527
5.964042166
5.917800837
5.903888397
5.95529707
5.846185399
5.79755961
5.989762378
6.042832447
5.879865144
5.672476528
5.522619009
5.802655056
5.540398282
5.53492459
5.839297353
5.808333625
5.746514043
5.931075895
6.148589135
6.338393023
6.33601981
6.407585363
6.459639319
6.379123399
5.939200757
5.776614029
5.524735852
5.867611845
5.868579374
5.563347144
5.596078837
5.513617651
5.43808615
5.410879247
5.732197653
6.035118107
6.012347924
5.864528526
5.610408679
5.825672136
5.919760091
5.508096324
5.932039897
5.948958528
6.020910385
5.886333167
5.732253366
5.717648349
5.730492683
6.050123559
6.114502427
5.986033134
5.643584077
5.648882778
5.767332413
5.753134391
6.37633625
6.409981454
5.888661495
5.660607052
5.971634458
6.223391549
6.205040679
6.225066477
5.987528962
5.936478653
5.822291657
5.738291141
5.829187524
5.523353335
5.541727306
5.726703263
6.331787677
6.227456997
6.127529665
6.036498869
5.651216643
5.742069459
5.832284735
6.169278073
6.2044671
6.080567965
5.847665914
5.82760238
5.858648806
6.090177706
6.030169867
5.909953927
6.165345993
5.963931172
5.750475086
5.796129045
5.957035659
5.839615915
5.970733044
6.048810888
6.19354148
6.397508707
6.353665683
6.107939036
6.022707829
5.988126235
5.713051949
5.679801194
5.872700108
5.987879599
6.092379826
6.207630103
5.745804386
5.887844225
6.288587769
6.094743607
5.884854984
5.743732833
5.854268977
5.748462406
5.925101501
5.996958343
6.030581181
6.139881994
6.085162864
6.417819019
6.576084067
6.751410665
6.791530059
6.586341942
6.287134266
5.966795275
5.766893287
6.011716411
5.877552506
5.866874254
5.739358026
5.961348675
5.82617594
5.733502024
5.79953733
5.954014954
5.81902366
5.780656525
6.093118366
5.731206149
5.620040226
5.642570591
5.561670639
5.590535076
5.575289977
5.610055895
6.474888524
6.08661301
5.719588967
5.589519886
5.487275614
5.558223025
5.601100022
5.779378688
5.803804809
5.989966404
6.019760136
6.368065136
6.053423359
5.959077652
5.940115525
5.866681119
5.822375087
6.062865913
6.093849207
6.332030223
5.701976607
5.877447097
5.705722219
5.744830874
5.908286293
6.065224911
6.184074048
6.197966106
6.082030419
6.049748623
6.38782683
6.221806263
6.167700066
5.842043729
5.740892363
6.077503301
6.027309828
6.023593553
5.763712827
5.677664844
6.161481643
5.784337216
5.652122526
5.781471788
6.016892
5.958280551
5.974666094
6.347768743
6.455571228
6.319180139
6.176937846
6.443722628
6.365265277
6.115605887
6.200982007
6.116937269
6.055154111
6.13344241
6.088643619
6.015289408
5.928863857
6.045790144
5.847114156
5.808245672
5.799765277
5.978423281
6.05887208
5.962127582
6.247460008
6.086646186
5.876278397
5.859749682
5.887634214
5.983836145
5.908011741
6.040431172
5.862051853
5.980834319
6.005805956
5.913529021
5.700019188
6.188834977
6.195665413
5.818280652
5.895091451
5.803708355
6.034570707
6.329741461
6.050150505
6.065466429
6.33779276
6.254662918
6.230356108
5.981452259
6.042985443
5.785244598
6.033510568
5.89482739
5.775930404
5.846370582
6.26950766
5.900227987
5.744906944
5.960857973
5.945341682
6.183562681
5.618526365
5.722871601
5.855448399
5.789628607
5.845796928
5.98473641
5.913948473
5.740843383
5.93651008
6.031854772
5.836223668
5.819620773
6.068193434
6.141291977
5.7387362
5.679347605
5.716966022
5.567362578
5.678730167
5.674698339
5.970958337
5.790983
6.140138843
6.083628677
5.677890762
5.442578865
5.520984824
5.747770553
5.656026614
5.70855686
5.92504866
5.842286425
5.928270685
5.981397935
5.500031558
5.832161608
6.03154322
5.990257341
5.653492167
5.798944224
6.243307024
6.260895599
5.970124057
6.155756239
6.066816323
6.218759664
5.899785613
6.087420216
6.284227818
5.921204341
5.947680465
5.793446385
5.871193442
5.719372842
5.393708495
5.229176155
5.432913438
5.599038754
5.853723831
6.126864977
5.761521504
5.56546389
6.073408472
6.008215935
5.954469027
5.895480766
5.725586915
5.612726229
5.854999057
5.926003489
6.058981548
5.666546407
5.633392968
5.607847733
5.58346732
5.719678985
5.804766298
5.688940185
6.006443284
5.866704539
5.54244068
5.721769411
5.251258886
5.329271852
5.585824885
6.106404115
6.421662702
6.28923654
5.816038643
5.465115326
5.57181902
5.839526593
6.120856784
5.743285945
5.877096549
5.71988877
5.592495284
5.678818093
5.755553943
5.82840119
6.013352308
5.876926995
6.166501957
6.068101623
5.748747071
5.834748989
6.166113103
5.912704674
5.807601891
6.032445287
5.934666209
6.122462034
6.122064407
5.776006918
5.983070714
6.194381271
6.502508962
6.39166311
6.101908003
6.005684203
5.705459654
6.126314394
6.002888882
6.188637173
6.035225036
6.284475766
6.266996602
6.324154556
5.977423638
6.070489709
5.827482073
5.642204265
5.643073908
5.751428822
6.06439741
6.222169318
6.025779669
5.860921945
5.744022188
6.061718728
6.157551299
6.277415389
6.052553277
6.210411334
6.307308172
6.189149025
5.720218463
5.866577188
6.08570359
6.070052484
6.001750854
5.98192848
6.149338763
6.141480241
5.859080655
6.088375177
6.05519153
6.054848993
5.718937727
5.768310555
6.045195514
5.852199737
6.090625849
6.102466304
5.946509479
5.761355451
6.014292742
5.745555678
5.900630061
6.210415714
6.224982338
6.20096263
5.687936198
5.659637199
6.488149546
6.156511259
5.937170353
6.042234874
6.330483816
6.404448541
6.192749911
6.099804787
6.280130211
6.120475779
6.023982186
6.028932568
5.629376976
5.744548616
5.774938571
6.050869858
5.797647848
6.221732758
6.41855384
6.326525992
6.213929997
6.285885147
6.086143001
6.27869869
5.785731759
5.974150838
6.085397276
5.911607937
5.721048208
5.695811577
5.699801785
6.015280651
6.160795622
6.226263891
6.089850585
5.960223449
5.994584606
6.048062584
6.27359929
6.099986354
5.565294602
5.470431118
5.588213959
5.617880371
5.887042173
5.653844496
5.784738655
5.966896855
6.026576969
6.081909795
6.098995898
5.942658336
5.782195429
5.79989572
5.793354898
5.915354496
6.195655633
6.035055169
5.979257087
5.708377483
5.925410505
5.83923471
5.976252251
5.82132043
5.997365521
6.192919285
5.869039382
5.974671118
6.138810436
5.658571114
5.691805622
5.776932801
5.570425071
5.639874608
5.888264447
5.782899969
5.853593153
5.957901315
6.225904346
6.188367255
6.27445509
6.124765754
5.697619072
5.961202044
5.857472466
5.737294471
5.800180788
6.18535886
6.196733678
5.950743838
5.84890938
5.996082449
5.896123301
6.035950007
6.05955253
6.142336164
6.186957523
6.090615112
5.836903286
6.079382606
5.726081418
6.045949218
6.395604743
6.065895836
6.517125219
6.2655466
6.072170712
5.92564221
5.916831073
5.918643793
6.21441746
6.427060103
6.382997013
6.247926838
6.160082959
6.289587635
6.402311055
6.442913487
6.484103393
5.985651337
6.064130653
5.800921613
5.680667215
5.80774009
5.855544959
5.787679766
5.779701941
5.820260121
6.170048907
6.313369975
5.940793938
5.709189386
5.964914905
6.182062378
6.281076692
6.280150387
5.931900289
5.809937778
6.115650719
6.074012748
5.675823575
5.720311838
5.736436589
5.704602001
5.617015149
5.563879917
5.748850268
5.550503743
5.849111575
6.289124196
6.355579321
6.267078931
6.38591578
6.577930571
6.256771652
6.302872247
6.553514422
6.09843368
5.907558249
5.903075334
5.376130324
5.590576548
5.612280856
5.701111616
5.499863862
5.486517602
5.705048775
5.854006819
5.655938648
5.617876837
5.522648813
5.745135748
5.830599143
5.88888099
5.939414823
5.454775785
5.553102484
5.871815755
5.773125919
5.480248979
5.851646728
5.870655109
5.73924729
5.792652137
5.815880086
5.70915505
5.812642345
5.556282758
5.659820883
5.649188031
5.755440615
5.921217211
6.072942044
6.042585617
6.127112743
6.106784285
6.000167147
5.881356868
5.764704064
5.907526651
5.913438748
5.763095515
5.922299467
5.758788628
5.765139923
5.686302539
5.589099454
5.854719929
6.085622989
5.881020755
5.861902775
5.876305168
5.876886014
5.657551026
5.663622979
5.81873259
5.843072863
5.816115064
5.759623849
5.611375708
5.788482582
5.676763716
5.395510996
5.487246976
5.50517073
5.607025901
5.563354079
5.451072905
5.6483851
6.056494816
5.967277386
5.708164613
5.787248607
5.85909569
5.765528151
5.621064201
5.735561062
5.769065124
6.011651755
5.902481579
5.736943048
5.68437417
5.681016732
5.66864608
5.374342613
5.878755735
5.885733597
5.592705691
5.39019261
5.526496404
5.990845945
5.901639682
5.822299703
5.767346331
5.926818505
5.729278044
5.634453502
5.634991893
5.723083027
5.762771288
5.911640024
5.682040154
5.43507141
5.599586691
5.921894306
5.906650884
5.897335648
5.582721168
5.503247671
5.372971198
5.705004822
5.843787468
5.711271462
5.923852311
5.654865863
5.638324243
5.782239815
5.891151812
5.819392309
6.127553681
5.654232529
5.436949119
5.373383704
5.363535233
5.416375952
5.391109509
5.490993165
5.604498058
5.922554005
5.778843333
6.029167803
5.735755694
6.078853114
5.965681203
5.899899359
6.009757502
5.91303978
5.825699333
5.931383099
5.851793992
5.57818616
5.670172808
5.758725845
5.78972815
5.876247256
6.151207136
6.346519942
6.509535121
6.301998182
6.085904991
5.991741185
5.80393341
5.481939408
5.527944142
5.709700285
5.676921158
5.739329177
5.690105014
5.632396627
5.407018071
5.840814544
5.835157151
6.138611482
6.439899441
6.213754335
6.108932499
6.228505506
6.139480655
5.765820756
5.883396896
5.908041486
5.903802998
6.120253069
6.096758322
5.931889533
5.54639647
5.465692132
5.723393787
5.693993249
5.814821696
6.071913463
6.069346726
6.0822215
5.808459332
5.79079975
5.721198423
5.984360856
6.108323998
6.083594653
5.966461322
5.848676545
5.940089374
6.011502364
5.8210097
5.839560925
6.124007061
5.963201944
5.729358381
5.958513437
6.062987552
5.852716797
5.831950387
5.598302515
5.793725523
5.866092654
6.375660747
6.115252944
6.0945302
6.136128912
6.027874229
5.843915034
6.12243751
6.127548782
6.199457137
6.623880688
6.112889421
5.652654091
5.694143891
5.598440745
5.796245883
6.06627624
6.061530241
5.915169164
5.883254579
5.967393751
6.165747489
6.103212461
6.001519325
5.721768307
5.937526467
6.130689404
6.087084939
6.178726767
6.031193411
6.125854466
6.103485798
6.033811811
6.323278369
6.029008255
6.056153738
5.808633566
5.652516697
5.929629742
5.897633491
5.917482365
5.965851717
5.908044852
5.804291799
5.600625584
5.571787967
5.904483047
5.759537867
5.683967399
5.887717243
5.656777557
5.709700639
5.488880607
5.373878131
5.555541682
5.485960004
5.774948232
5.926030472
6.009862524
6.234568996
6.041159891
6.522255393
6.585873492
6.094790218
6.162375214
6.183349021
5.96845199
6.26261696
6.08316825
6.069454723
5.92777302
5.935941045
5.944987518
6.061333767
5.752156513
5.609524473
5.766377748
5.781827576
5.748417657
5.572692531
5.284361646
5.38987886
5.853108921
5.783046517
5.587597331
5.488308284
5.586024236
5.671361748
5.806799164
6.097087581
6.137896178
6.095668182
6.081305748
5.908434069
5.81475689
5.964332132
6.177820452
5.888712954
5.722129834
5.732034363
5.999531243
6.269171931
5.940513707
5.965741705
5.921992055
6.121144506
5.863946838
6.009969831
5.598999823
5.791702489
5.625025107
5.597331733
5.769265326
5.967456124
6.138175267
6.022408287
5.563929287
5.468867113
5.512447041
5.779905732
5.9286266
5.91773212
5.911745029
6.023350259
6.233001907
6.098875754
6.109904196
5.89713275
6.175639971
5.581720958
5.471061396
5.666418888
5.800267734
5.8238007
5.925849934
5.531666874
6.296561729
6.207759304
5.807256334
5.824647925
6.112176951
6.199284822
5.685782408
5.700072866
5.88380598
5.995069317
5.872907524
6.094677162
6.23312879
6.435709774
6.086735638
5.963158008
6.010866178
6.003026714
6.114291739
6.155668406
5.905190887
5.995542693
6.205879856
6.090748184
5.848022539
6.116466055
6.090682725
6.310780015
6.075825446
6.040753366
6.038045377
5.691364115
5.776343753
5.935440769
6.017180257
5.95221828
5.94812483
6.110683598
6.304652502
5.978507231
5.628393304
5.788282484
5.832983331
5.655812069
5.707670212
5.462892861
5.633898301
5.81415937
5.785689378
5.600276539
5.774131862
5.926693963
5.828813886
5.590209164
5.857125777
5.970252376
5.700867195
5.494464625
5.595811154
5.698758135
6.202094197
6.178130647
5.829663399
5.764859502
5.782056968
5.602534571
5.823472551
5.846358988
6.129609846
5.89328912
5.704556558
5.535620345
5.691444919
5.728461419
5.708552404
5.654279243
5.709127581
5.715134793
5.588149615
5.658667977
5.983928523
5.775765718
5.799557665
5.784800317
5.946528868
6.006559157
6.13200567
6.33694755
5.861203341
5.756491798
5.545472358
6.011111677
6.164009957
5.987973736
5.902190417
5.896030255
5.711557274
5.444146324
5.724052512
5.67422124
5.393276834
5.583340517
5.728795513
5.807789594
5.667197306
5.366268048
5.407907173
5.522931627
5.34145739
5.475161999
5.81273552
5.612668192
5.466733357
5.845005002
5.706294411
5.357177264
5.24795543
5.490873117
5.455840559
5.481041692
5.860209963
6.055002916
5.865919994
5.739833789
5.766836195
5.910436436
5.934929884
5.859082323
5.959264403
5.615405212
5.539551996
5.76654671
6.149996138
6.097151839
5.831326168
5.677784331
5.559050034
5.477762915
5.502136075
5.856462007
5.955022555
6.096078942
6.227064486
6.202113319
6.503697218
6.381652663
5.947420324
5.990046175
5.935896994
6.064368249
6.13703121
5.858227765
5.835052491
5.838117378
5.974469428
6.219704591
6.387025896
6.193645154
5.909697413
5.859713989
5.895267764
6.043339817
5.712641357
6.082975537
5.945083975
5.748507471
5.907593095
6.093289248
6.068051498
6.099159601
5.997544831
6.022921772
5.929016011
6.226811687
6.351105159
5.902285325
6.007633045
5.858942962
5.732942343
5.84345814
5.970532511
6.104582445
6.581107266
5.966043176
5.885473736
5.727186593
5.836691606
5.546670604
5.661661776
6.212587496
6.089182643
6.272130627
6.454302555
6.381130574
6.365279719
6.131952421
6.363554165
6.467696831
6.238060507
5.960642672
5.988505279
6.18096377
6.266482248
6.132980055
6.296485516
5.905089592
5.698108683
5.696098319
5.870271699
5.764992595
5.899602454
5.787621419
5.717096378
5.957307085
5.681088592
5.761839312
5.934920361
6.210533616
5.733743182
5.986535147
5.868680931
6.09134165
6.039310324
6.021938175
5.696414291
5.866872133
5.838041602
5.660306018
5.951585993
6.248053914
6.215436796
5.767338644
5.668127669
5.478290379
5.570518267
5.657355721
5.501801657
5.718122932
5.833074728
5.850442405
5.76225518
5.643168545
5.561249017
5.808482193
5.899188477
5.990738088
6.078750992
5.771881572
5.816923447
5.60889757
5.922734685
6.004371875
6.092909402
6.180899898
5.920377165
5.940093265
5.483595109
5.478364408
5.605605986
6.018824445
5.789319874
6.036373118
5.850106886
6.022818046
6.367147514
5.974966442
5.804813607
6.406366488
6.413396112
6.146409617