/*--------------------------------*- C++ -*----------------------------------*\
| =========                 |                                                 |
| \\      /  F ield         | OpenFOAM: The Open Source CFD Toolbox           |
|  \\    /   O peration     | Version:  2.4.0-MNF                             |
|   \\  /    A nd           | Web:      www.OpenFOAM.org                      |
|    \\/     M anipulation  |                                                 |
\*---------------------------------------------------------------------------*/
FoamFile
{
    version     2.0;
    format      ascii;
    class       volScalarField;
    location    "0.0007";
    object      overallT_N2;
}
// * * * * * * * * * * * * * * * * * * * * * * * * * * * * * * * * * * * * * //

dimensions      [0 0 0 1 0 0 0];

internalField   nonuniform List<scalar> 
5120
(
306.5520793
307.893532
307.07535
301.6583453
298.4639416
289.871254
294.8531187
301.1267339
282.6222372
283.9177656
284.2806882
283.0396643
271.5969208
283.2129531
296.1868228
289.6710258
283.8692917
293.9343773
294.3570617
297.4122955
284.162379
292.0958079
296.039523
285.972958
284.3321075
308.8193858
299.9897132
297.7983716
308.6952837
304.163587
294.8628978
294.4744456
299.186142
303.0959277
305.9709294
305.3780303
305.2936668
303.1581261
289.466397
277.8755021
286.3969986
297.2639841
293.9482317
299.8077526
300.5655227
304.3251488
301.8606656
299.0627401
301.1889723
293.2466605
287.031608
285.2336734
294.1160867
293.7089343
293.3448147
295.1269009
303.2681941
301.7842064
310.2330527
300.8870918
302.4984809
287.7433996
295.011865
303.9922088
300.7336638
291.7929886
283.0525086
294.4537105
287.3554269
303.8241016
307.7289815
313.2687857
313.5674781
308.7199377
295.8190027
288.9560839
290.4813163
286.107787
291.3605296
306.1785077
297.1447359
302.4698653
309.5275064
299.7001247
282.5407283
290.2736558
297.3256635
301.4331014
297.1034778
299.0250215
300.4041088
286.2028205
287.7489662
286.2860664
287.0274593
284.1295644
290.9167436
295.4657443
302.6957565
298.6804678
300.5600322
309.4661244
310.7224767
308.3892687
303.1785187
305.4118341
297.2162637
294.170211
289.854034
280.7169177
285.3425325
287.7269545
293.1655418
299.4323454
302.5658616
314.047108
309.5828304
302.1259042
306.4521996
303.6663366
294.0772958
301.1675847
292.0132341
290.3502382
292.8249224
301.8454873
299.4463662
291.4926021
290.4856528
301.9695704
301.4404052
297.8694995
300.2996534
302.8216158
287.8197418
278.7235842
290.311574
306.3534344
304.5225855
298.0077815
276.710875
280.2315012
290.4356166
299.0285383
301.5948544
306.1166799
317.1454366
304.8239295
306.3188934
307.460565
308.0305199
294.3054645
288.4397326
286.3631383
306.2240834
306.7724135
291.8007998
294.7566173
297.8490953
293.4367261
308.844556
300.1331513
290.7556269
287.1341265
289.3787913
293.3547291
298.3930858
298.9756116
300.289535
292.8122189
287.0794257
285.6297396
297.3968767
290.5243485
285.0167741
288.5626766
290.7343922
298.3060711
295.6739416
298.8358137
310.142002
313.8109641
297.325175
293.8735654
303.7466994
297.4895679
290.5395877
291.4366285
296.9912599
303.4376816
294.1882874
292.3160333
294.9349253
294.088049
304.2259103
309.8697419
304.9742567
309.1858473
304.1902132
305.1943808
303.1698261
305.063924
304.4426007
297.0198239
297.2959754
309.2398393
316.4383149
318.2211448
314.3089591
325.3301311
326.1767272
314.2542349
315.3080265
313.1913009
303.4350475
298.015541
302.4776629
306.7385231
303.711564
304.85507
293.472846
294.5912659
303.1784866
302.9013536
302.8053433
299.3555782
293.8990518
297.9014989
308.0773994
306.3985232
302.1670647
305.9598179
304.9252081
302.4827471
311.1790777
298.1255858
296.1380408
298.8882795
306.1369547
285.4521969
291.4936055
295.8504219
295.4380764
306.1641422
310.7862425
305.6944205
307.8190016
291.6958194
294.510459
297.9668456
287.1497048
295.9697941
309.136228
302.160606
303.9878305
307.9449744
305.0019695
302.501344
300.8552909
305.8682239
298.7480579
296.9522329
296.7602371
299.8541357
285.732467
301.2563844
300.7211859
300.5015156
302.4829373
300.756176
303.3000261
311.0815244
305.9957782
298.0774367
301.008039
296.1793343
291.789715
296.4216645
294.9072415
289.5268176
299.9203911
306.8796913
299.7722026
304.9334019
312.0179539
298.2934333
308.3409496
315.9873841
319.9882994
313.083066
301.72691
304.3593332
302.7483394
314.9714966
307.6032974
306.421106
307.6119097
311.866535
303.098666
298.8470163
292.9894815
297.2484164
301.4120753
298.246116
299.1639344
295.8711553
294.2302925
297.8936337
299.9493768
304.4309668
308.831213
315.5766741
314.393507
311.0227279
286.4807874
282.1059689
277.4042597
282.8408433
283.0139039
283.4589766
292.9916255
289.6683943
295.7294772
303.5745126
302.8649873
301.9066716
283.5180204
282.3148048
295.2862372
296.217086
298.5787557
310.9730461
309.4497444
303.9889584
306.5129797
300.9142092
290.7510037
307.6074776
300.4058816
296.3476932
316.9692673
309.3020426
307.1402776
301.9791194
296.4777707
297.8342494
294.0458967
295.6215544
293.2759144
303.3979153
297.5238464
301.8605867
300.4907362
289.3607595
293.1647186
300.0872212
313.9195159
302.345286
297.0873946
309.528965
280.0024261
283.5141155
277.3930331
282.5754087
292.1169247
291.6005545
294.5245174
289.7168643
291.776187
283.0426572
285.5261036
288.1409293
276.088983
288.8588581
293.9614894
291.0666774
291.4426272
286.9624353
285.5650135
278.9107393
298.6113842
310.1158347
299.5687519
298.0970497
306.3289557
296.0895886
294.3261786
292.8403451
281.9096876
289.556096
285.6035424
288.2986796
289.0246327
287.1495809
287.4306859
293.1355772
287.9723924
295.1591586
289.374735
291.3146577
299.9629392
291.5098906
288.1177951
285.2585193
288.0249264
296.1247016
292.6194425
287.8273557
287.0995006
288.1760049
292.3536044
287.0863007
286.2410355
289.33344
282.7073227
294.3504439
289.821242
287.3586821
299.1517862
302.0681759
313.5431019
308.6077243
307.0406081
302.9251008
304.4356054
297.3305965
302.4745989
291.7341125
292.0274773
292.0381397
298.9404957
306.3351267
303.3796452
308.0881338
296.1098046
295.2883289
289.9898637
284.8585764
293.8753887
303.5508153
287.8764163
291.1620303
292.5398554
302.4902552
308.1325946
303.455932
296.3229244
300.6916
303.8159669
311.1011366
318.6841192
306.4145648
307.4891255
296.6238261
306.1899469
303.0339909
302.5042756
286.67043
279.847082
284.1883737
304.327138
300.6659668
297.9549086
291.9621067
300.0335782
298.8815961
295.8685854
303.3502997
300.9064823
292.374346
291.3216395
299.2439944
297.4159242
294.9288365
301.7956526
296.3539431
305.3729834
308.647086
303.4615487
294.7841099
284.1234236
299.4962937
299.8480902
283.7366153
292.9737461
288.9742959
290.4496079
298.1562275
302.8699689
298.940504
309.7222918
312.0683311
302.9461768
304.9523076
304.0374278
303.9631235
298.8948323
285.5875521
282.0149292
286.9490703
296.7113748
296.5328127
318.1322443
322.8404364
298.7589709
290.6625176
292.9044051
290.4192439
295.4652914
296.0165545
301.0872342
308.9644528
299.6650663
290.8131324
282.2983477
291.014838
298.5851993
295.8143463
304.8994179
300.2614905
292.061997
277.0835383
278.487254
288.2300089
291.8699707
295.105779
298.9992309
300.3772892
310.5176383
299.6035094
319.5445035
305.9971703
293.1248757
300.6972902
303.6752721
297.0880955
289.0003958
289.3725583
296.984678
300.6448259
302.6950432
316.8124065
305.1329021
295.0040971
298.8075524
300.0291259
301.2994228
299.7424679
297.4774927
294.554932
304.2125299
308.0987951
307.7842228
297.5339605
297.9926432
298.5463587
304.7601866
289.9023883
275.3093525
283.5193597
298.2694635
297.6984218
300.4850557
303.9111971
308.1535156
312.0657383
316.2993052
307.3500677
300.2554584
301.6561863
299.2212284
311.7717216
300.5197965
289.6083045
286.0374978
292.153127
292.1186593
290.4899242
300.1531514
302.5411205
301.3877217
300.5597554
300.7634065
299.4196025
296.8753624
297.0666696
300.9010601
298.0766399
298.8194512
300.8788412
303.0393071
295.0801772
294.7788085
294.3715484
300.2488913
307.0111582
306.7837639
300.6316118
299.6363003
301.3381794
312.6964093
316.5166722
304.8602652
307.0481684
308.9195586
304.6977979
307.5993729
298.4373597
296.4819884
300.5036176
304.0446512
288.2201202
309.2566558
314.9738679
304.5924255
309.623522
309.6274094
318.9665908
335.0163872
334.3194155
319.2125766
325.83742
314.2476269
308.4005204
316.7292299
303.2788322
308.4868091
309.4123395
306.9404279
303.9468383
304.3322791
306.7638485
310.9220884
298.2449901
299.3811829
292.3273885
300.2837513
301.8627851
306.7683542
307.7626362
291.7553748
296.2691084
294.3090887
306.129431
299.1550703
299.206036
304.163373
307.8262456
307.5619193
309.6497941
307.9581513
306.7805369
306.5993078
304.6524193
291.1148769
291.8679855
292.2109006
288.1693567
291.8675751
298.5562202
295.0342735
291.496592
296.3271735
299.4144576
301.7140384
311.2989602
304.4624832
305.8075292
307.984399
300.9276745
297.7600934
291.6743493
307.5835572
306.1509339
296.6793059
292.489225
292.4435599
295.4811895
294.937909
291.825821
292.7300147
280.8010307
284.5462888
296.7079825
288.6333046
289.9904872
293.3402734
299.5237562
291.8936118
305.3097847
300.8997078
309.6443634
312.0663119
304.123499
302.1586469
315.5572861
294.1821898
298.6322363
299.6082439
294.9142079
301.4634368
300.4037714
305.6016558
289.3819349
288.8852802
294.5741937
290.3519534
295.4664205
299.7991352
293.4698348
287.8081192
285.4111039
289.6512304
291.3372928
298.4055018
296.0185989
313.118505
313.4328881
310.1348273
307.4177089
291.4690064
286.5519767
290.0113118
279.1191751
279.4797601
271.8998822
278.9989052
291.0113007
300.7981672
304.0371476
301.2983003
295.003104
293.6562106
287.2609605
302.1765311
300.0143158
298.0542186
294.9894406
297.5989318
286.4955835
286.1737658
284.6345064
276.0787717
290.9605771
296.5536456
293.380216
283.7915088
281.5853199
283.2768356
296.4155956
307.7916081
296.8008727
288.5611625
296.0474443
289.9436676
290.2155651
299.4472665
296.6910671
293.4095293
290.0772907
297.1267643
294.0235556
302.7679086
301.1608457
292.4279506
291.3187103
299.1643789
315.8751667
302.9474464
306.5658725
296.8639962
299.9327821
299.6127285
286.2398446
307.2608701
307.6015314
298.3479283
308.0083089
306.7515663
294.854894
307.4060704
308.7703392
290.8741594
288.9871638
296.9001275
293.3655533
285.7791912
283.3243651
283.177159
274.3245586
287.389322
287.845631
281.6587708
285.4960782
285.9109758
286.8612321
295.7411109
291.0897666
289.3833731
298.887345
296.9062794
287.3574414
296.7036166
292.8170455
287.5590547
291.115899
295.9219497
288.8277106
289.3036834
304.799891
298.1772165
300.616418
310.4215339
298.5163009
293.3146945
281.5451617
287.7994854
292.983937
296.1906858
296.6583328
289.0205741
292.9262684
291.4355375
286.6394032
291.4737091
298.0681356
290.9842434
302.4693187
302.9467521
299.4703388
299.6782007
300.8584132
305.4744433
302.0071454
297.984588
296.6416081
291.0574146
299.8224445
285.1423591
279.4910785
305.2593453
304.6107101
294.8330284
298.749114
302.3818271
311.1424989
310.6800465
300.3805183
308.5927283
301.4293594
287.3984776
287.5722383
293.2007712
295.5277838
298.7869033
295.5700792
308.9017973
312.5590061
324.7916593
317.659353
311.894871
309.0410708
307.7291436
306.3841543
306.8569916
302.6814962
308.5797034
298.0731472
306.5549346
297.682106
299.7671895
305.1806452
317.6851414
322.7417183
314.3757705
319.3917411
299.927292
290.6037895
288.421299
291.0516028
289.8721182
297.7592097
292.3493025
291.2999605
284.7334711
290.0868947
297.7829812
302.6177461
301.5459357
291.8496413
296.6352901
296.4587092
294.077184
297.4780186
282.6986256
286.2692356
298.5087131
296.5315572
304.8026909
300.7742379
306.2354345
297.5877802
295.9624403
290.7301375
298.0148843
292.2755789
281.4937444
298.9647056
309.2132497
312.1018707
302.192884
295.1846087
304.9006488
299.561365
308.7939622
297.3999198
299.1606181
304.4327047
306.7884695
303.2871294
310.5884336
303.6010724
304.1056814
299.9660644
298.8554763
304.4895696
314.1973963
321.8076551
314.0206624
304.9784145
308.9850462
309.3696832
292.561011
294.3718236
294.8066121
302.5471875
305.3472666
301.6973709
303.3914477
304.6559325
294.1177217
287.1765846
305.7707211
312.4213371
304.4092295
300.6841049
292.2939567
305.2265522
303.7128409
310.2086973
314.8024133
318.2460929
309.2033744
304.4370914
316.3184022
318.4305321
311.9671579
307.17738
310.0565537
298.282758
307.2996963
298.5685838
291.1376088
282.4081412
285.5210753
288.180347
289.966074
302.9081154
307.4375147
293.7552978
289.605075
303.1536838
296.8231549
303.2157367
306.4233614
291.3495799
296.2360658
293.9609619
302.8062536
306.5671865
301.9948202
306.9119523
308.1532049
308.0701355
309.5013945
306.5105048
310.8795682
312.7480063
312.3518726
318.0135503
323.9718763
305.9459315
310.9432772
304.0932698
304.8390478
305.379911
305.2625939
312.8175099
303.3578284
301.7575906
292.8745986
290.5499573
290.9662867
289.2084254
288.1447666
288.8299302
296.3453938
299.8018474
305.6279436
298.1216495
302.2361179
307.0821702
301.75049
299.0114546
303.7294864
308.1414921
297.2613182
293.266232
291.6490674
299.0286216
299.5882957
310.1851915
304.030397
304.4836474
302.4824894
301.5428716
298.7954631
302.0455746
290.2949524
288.1234473
274.7331819
284.4348595
291.344255
291.8547221
285.1520364
293.8524058
297.2506673
305.5921159
303.6352737
301.9384968
316.3819254
297.3290164
293.3658864
287.501611
290.9984413
293.5413252
298.1768531
312.9245897
310.2971578
299.9691328
301.1374159
303.0761244
304.6629041
300.8617954
309.2701478
312.1436531
309.0304351
294.2111374
292.6050582
305.1989469
290.7584534
286.593103
291.4038511
294.3086736
299.0851236
312.4178866
300.9723332
292.7088609
286.8759236
286.8813312
296.8432038
304.5120669
298.8430818
289.8422093
283.4698196
297.129273
304.4166621
312.2677229
305.1981604
290.4487777
297.0674998
300.3415486
303.3489423
310.9349969
305.7613634
302.3987308
303.7250637
303.2919029
304.6898884
299.2648742
298.3566211
289.9612222
300.5717194
298.8117312
290.0523568
284.9664607
295.9131328
302.853676
309.4018924
304.0947361
292.4522286
296.1691151
297.0749363
293.9309405
292.6077658
295.8717411
302.6048543
304.6373146
303.3641007
305.4935772
298.8936236
310.5301258
304.456692
302.8410028
308.3156984
297.5256806
289.5136683
283.0602733
282.3104923
288.6592397
302.4261347
299.8224917
299.6231781
300.8550925
292.2855348
290.7851135
300.1663253
293.7807713
299.5111523
301.0687538
301.6874776
295.2338179
295.2681841
298.8198941
302.140803
311.8095435
302.6921549
292.4123208
289.8623646
295.123396
289.2157904
286.111991
289.7859149
294.3179829
289.4618384
274.8452567
277.6922228
283.2141901
282.7074445
291.8952002
295.2924046
295.5074738
291.003276
301.0569628
299.7614856
297.6067717
289.4487578
294.2446219
296.2267064
295.8614404
275.5145558
277.8465608
287.8392678
283.3362093
290.8155645
291.8782057
296.3842397
304.1688135
307.7181998
306.6321451
297.2051763
290.903138
283.2015208
288.9158347
294.3303801
299.2250731
304.9740976
296.8565564
289.0407443
278.296876
296.5476601
295.3828204
297.4943603
299.0794131
289.1150594
306.1244108
306.7913115
303.8433546
296.4305138
306.4354887
311.5877666
316.304162
298.6262849
303.8652489
310.9598275
304.4935626
294.3651598
305.6313088
296.3848106
299.4265934
307.7914892
307.0712272
302.1722534
296.934734
298.7835233
295.3904335
289.8025534
285.7931892
289.6106497
298.2759186
301.5012277
305.0245362
307.9528164
302.5641043
304.2315026
306.6087637
309.4994579
303.2228499
306.6634372
317.291606
313.3105829
315.2819661
322.4301409
319.2989003
304.5616496
312.2730227
313.6434029
303.9450288
306.1508826
303.2159962
312.1677225
306.3485805
300.4218946
308.146507
302.2299223
309.6542918
312.87217
314.7032854
311.268778
299.543451
307.6209647
318.9798021
297.206313
296.6509721
307.0959342
320.0744491
307.6678266
307.8046918
306.0578053
301.9829728
305.1588521
296.2330316
303.4767528
295.7541737
305.2517258
302.6759102
295.3206552
289.9478227
303.6679079
308.40965
293.7338777
296.1763921
305.1831425
301.1239823
303.6708041
308.4525615
322.1256148
313.5638584
307.3890818
313.4034685
308.2111407
304.1510422
298.9965278
305.6007797
304.7536688
303.8103955
312.7311182
309.0161846
293.9871031
286.4913706
300.8809603
286.0554152
290.4491148
287.4294334
281.9669722
284.7193043
285.03596
293.3093867
293.6368075
301.8657391
307.4021111
312.1941444
303.0014456
302.2142769
297.4251516
302.4777877
306.330544
302.2768836
306.4313369
300.407316
293.2932952
296.8054619
303.328094
298.1964404
293.8932665
292.8947391
303.0412035
300.0005869
312.5762826
315.2545654
304.9561377
301.4192311
300.0660538
302.2373802
304.164307
298.8770428
306.1273419
305.7689871
298.3175128
293.0727232
309.0673447
299.2706524
304.6588645
314.0277139
317.094734
300.1412591
295.4762943
289.8030152
282.881662
290.3199925
286.4950326
287.021738
290.9865579
285.2321978
289.6322034
282.2905352
290.8320266
282.8472439
287.9139417
296.0890394
295.0530425
296.9378812
299.9990242
295.8511054
298.6955615
304.010018
294.9764415
284.6320388
285.4305141
291.7805906
290.41746
285.9141764
283.3477031
286.5310989
284.4423196
285.0489568
282.5135797
287.2538275
292.0726733
290.173093
299.0878437
310.9950217
305.4769119
299.9112595
307.0901714
296.2243833
298.7610067
297.3124155
293.8399398
296.0287735
302.7077024
293.1051114
296.6170625
293.9025334
304.5651712
306.13909
301.6106134
300.4481032
300.1816343
293.7692645
291.6906151
301.8914745
295.2213529
296.4822986
306.4933395
302.0721556
301.3554435
306.100943
297.4784668
294.4885791
300.3059707
301.2809289
295.9666392
300.3440514
290.3271241
287.3658152
290.7093371
286.8271831
267.2457972
281.4585043
315.9811451
311.2386627
311.6726782
304.6198339
309.6716744
310.392668
306.1847322
293.1702896
303.5713245
304.7530079
295.4610939
292.5365105
297.2180503
311.3219233
309.3199453
309.9719107
310.0314836
304.6042443
310.9978614
315.3525447
301.0850485
298.8813193
302.4521243
294.561888
294.637077
295.3911623
299.154697
298.678166
304.1452367
299.728175
294.2894148
288.0797805
291.1691982
293.038291
306.7150489
307.4573906
307.6031261
299.707331
300.476632
301.4948341
286.652949
290.3001962
293.1351444
302.0994307
306.2297176
300.3958895
289.277674
295.3248719
291.910517
287.2891919
290.3619961
299.6150757
295.6954426
290.7386625
293.8033543
294.6561439
294.0420409
301.0450085
286.4089664
279.6068027
301.9708362
301.545471
298.8454246
295.1560486
296.0519424
308.4018624
317.2075738
309.0379847
297.4322118
296.376585
309.5672633
299.6944454
303.7254483
296.5258667
295.8463808
303.0499422
298.8612239
294.3019322
311.1977816
308.6370669
285.0055825
282.5155784
280.6824363
284.2942388
283.4013524
281.7815522
279.4067416
278.6762604
282.1626152
283.3200842
286.3879311
296.4625551
295.0019217
284.8258381
284.5254158
293.3277132
294.4112517
301.0614378
289.9104583
287.9071725
300.5134853
297.5866527
297.8153295
294.2113361
292.5979202
297.7332765
303.5242906
308.9801337
301.3017947
294.0729764
295.5891103
295.4701087
303.2867293
303.8334036
296.3163478
288.6958607
289.3948112
297.1624846
306.4534822
308.7425925
304.3959674
306.1422988
316.7860459
323.8397097
318.4130588
301.3097908
302.2703046
309.3155069
319.146614
305.767119
300.9871551
296.4813474
291.7475052
291.7349844
291.7587024
286.2616521
296.8519476
295.223101
298.3338088
297.3114763
296.0646995
307.0062221
303.6736462
319.6418624
318.5342736
310.1332748
309.0645273
306.1991511
293.0452537
299.3363368
306.6191307
298.3196782
303.8258305
311.0391963
313.7866111
321.496574
299.7958433
308.4430206
305.4602889
302.0628266
312.567535
303.2205649
315.6293677
296.6816069
302.6569776
311.4162481
309.6703925
306.1473935
311.7264017
308.7451837
298.4652977
308.3830841
310.3303538
314.5860269
307.0959912
302.2063832
304.429664
303.7435473
310.1025913
315.9479361
309.8203504
303.9339034
313.3135644
325.3952977
314.5823971
308.7774911
299.1767448
287.9940732
284.7674973
298.1743478
310.6582243
312.8374995
312.1223732
313.5700883
309.7258813
300.2770581
304.1575678
304.8620568
306.1790435
296.5070489
300.898885
301.7590185
294.2791116
286.2581582
284.2293729
292.6734495
287.427556
291.9657678
302.1121293
293.3086748
286.2860045
283.6890465
285.7912044
289.1717941
297.4260549
293.0882812
292.6567605
294.351022
290.139294
287.8702657
304.6991546
310.6692742
310.6534547
300.2481292
296.5615385
309.0938176
310.0522039
300.8762104
295.150707
291.1098931
290.2593862
293.5886557
296.8877797
298.1287852
297.6975334
294.6912316
298.2483198
294.9788554
302.9993868
313.7152104
318.1046704
303.0582564
301.7088638
304.2824282
295.2532816
288.9659002
295.3204849
293.2873394
275.0096235
274.9560389
284.1833166
283.7579498
296.926277
310.5621163
302.9984769
309.9674117
308.2352726
299.3120254
309.8070835
319.871383
306.8214764
313.5680729
308.3800661
311.0338138
310.6242096
305.7995553
290.1249143
285.2662194
285.1051003
290.4912178
290.1435139
283.9245791
281.915753
284.490887
300.8994132
300.0318981
291.8016104
296.6212337
315.0834091
302.2142105
308.9660462
302.3598501
306.0975554
303.0232276
287.0823985
285.846638
297.6890615
299.616221
297.4624502
291.9930964
282.7210526
292.2756542
305.2412922
296.3719231
292.299015
301.2019106
303.8572808
296.1248376
297.4803064
305.0022719
292.5614531
281.9515612
279.8233362
291.229613
283.5455386
286.0199722
287.6262922
298.7337627
305.0648925
310.7072874
310.1390246
300.5283649
287.8212018
290.0105681
296.5461041
300.1039313
297.0084353
304.4415381
298.9599448
292.8330355
294.9666718
296.5348702
298.2343104
298.9951467
292.4269177
286.8404974
289.9772182
291.0989201
288.9412534
285.2774274
294.1427913
305.4638396
302.8448957
303.5408645
302.2940727
307.1812075
299.2693957
311.2973468
306.5610048
296.4710896
298.9442618
298.2853832
298.0532129
299.1607498
293.314958
289.9587018
293.3114985
293.1106601
292.1339502
298.302226
293.2670872
292.7924499
290.4720306
283.3176602
297.6590177
298.4384229
308.010264
308.0613289
306.1688866
303.9883983
313.3742998
298.4727726
300.3008705
306.9458984
309.9193321
304.2559794
296.2499333
287.8079752
283.5374248
283.6831387
295.0601296
303.0055309
305.4989163
300.2355963
299.1511246
291.3275492
291.9221028
290.9763113
293.2290576
314.045438
300.5527178
304.4178235
298.2019445
291.2083712
289.5627316
279.765082
287.5073905
286.2933642
298.746661
288.6190489
281.2066077
300.4666492
305.7948449
299.0486554
294.0297331
295.8575084
298.2315366
291.4760434
292.7945325
293.0600479
306.0904579
297.5778969
293.7010945
285.599272
291.8450934
289.7324761
287.8532953
293.7217748
301.6648842
299.8592846
300.873807
293.6189348
306.0639509
303.4862692
299.3367225
305.1198449
294.3804378
289.2603946
281.6700406
297.4092479
301.1981138
305.1849648
309.6429431
302.1324734
309.5185018
315.5475266
310.3220503
300.8580134
307.6070801
314.810648
322.7571875
320.2109672
303.7936041
304.3851382
298.6595159
295.7082099
291.3008489
295.4269866
305.2737342
299.8281009
296.6648748
294.1228228
289.1788431
291.9143164
292.3324789
290.4691928
286.8480969
288.2384659
285.724672
285.1697853
282.9935194
282.1911746
276.0593737
292.3541234
297.2024991
294.110756
294.4539364
294.5477515
295.3317864
294.8028323
313.406325
310.4030436
309.5563273
307.0132737
309.5812841
304.9923896
300.1397826
298.2011088
291.0906051
297.6679229
302.8737631
291.8306081
293.1645604
290.4352804
291.3350321
310.0167493
304.3615529
299.1990605
306.0643796
311.159739
303.6609896
310.2461417
301.9366372
301.1949774
300.6442867
309.3418836
304.5784511
292.0772708
310.1607328
301.9021084
307.2857579
303.8412784
313.8061476
313.2524615
318.9271888
313.7215222
321.7427722
318.5511303
318.3497816
313.6554482
293.5940005
291.4722298
304.9937208
298.9884656
305.1169417
304.2235673
304.6411975
299.9574225
298.4064177
295.2898915
298.2279895
295.0608543
304.1469142
299.1102339
300.8010014
307.5494558
311.9216665
304.175382
307.2830929
310.6698637
296.0400137
288.1562932
293.0485745
295.8672565
299.5786812
302.2857286
304.5821368
293.492022
285.1789308
294.0944013
304.0568582
296.6507024
293.1748816
294.1756065
301.0014452
300.0293075
308.3782201
304.4938631
292.5367637
291.6904865
291.2481633
286.799048
293.5463191
300.1581386
294.9121053
284.6147143
282.9000853
301.5668981
307.4437961
299.1325019
296.9489165
290.5203586
287.5141515
291.1559949
294.3950242
306.095243
302.8258628
311.3481415
300.7253392
296.9768804
300.670008
306.4729009
300.6210165
302.7362211
305.8523803
304.2122818
305.9756166
307.9703154
298.884956
289.2792656
296.7505753
312.7686714
316.1217654
310.5775972
319.7506627
318.3624509
299.0414215
300.7713714
295.8710249
286.0094641
298.3374396
297.4256011
289.2118474
294.017015
312.551076
306.9665063
296.3539275
296.6486857
303.2175713
303.1868904
296.5193757
298.1612613
302.3386762
300.6274202
296.6499858
294.7692201
309.1668649
317.3545601
303.4299773
297.7483509
311.7405391
313.8776265
301.7114597
296.1055971
309.5640151
325.9697926
311.1541404
306.4679319
304.6174117
315.0759412
313.8198224
314.7778354
296.9705368
293.2036037
298.3208574
304.8556801
304.251436
307.7314817
315.1980148
307.491666
290.528271
284.2438016
293.0803327
298.2186681
297.2548456
287.9068578
297.2275095
301.8230339
298.1177062
294.6336748
291.3451712
294.3201505
301.6124778
306.037749
299.3143903
302.3048631
312.2673838
309.8830148
293.0408921
287.9261285
301.3737476
293.9264446
293.0641298
291.5781031
297.0762687
304.4026695
312.2630212
308.9028161
311.920479
305.499916
295.0145171
302.2164842
309.7381035
323.8135019
313.9811946
299.0745043
293.0946192
298.5919766
305.8188108
301.2257312
304.1608023
308.0574581
307.0432913
305.9815655
312.4048867
324.4002569
328.2938372
312.1627036
302.4404148
296.7794689
304.8450805
294.4692003
299.4534667
303.1645643
308.2221903
311.7177754
312.496499
306.8007369
301.909262
304.9885161
307.4166601
311.6538202
311.7246281
303.7689446
303.3628529
306.3348421
305.430696
312.9162122
327.6920425
321.1289372
319.4112275
320.025285
311.6277204
296.4939386
287.9302354
280.0475569
300.0253988
305.7445442
311.2717575
307.276763
296.9286559
298.3789801
298.8251853
300.165256
300.7677933
304.8387638
305.801822
294.4045357
291.658143
309.0512197
304.6256227
298.536332
293.6453136
294.5413708
296.7456507
290.7185488
289.2870185
296.1156919
306.9026363
301.5869795
293.1404512
299.2929418
304.3299029
312.7418531
315.7717855
305.4909096
318.0940859
316.5359465
317.8356671
302.3273721
296.6634391
298.8689125
294.9060246
292.9173048
301.7932874
304.2397422
304.2273357
307.7426607
298.6497528
297.0240798
305.2487733
308.6149627
296.6844181
293.5525755
296.880277
302.6860732
304.209324
299.8117158
289.1907682
291.4015715
288.5063431
293.9606334
305.9429686
314.7159433
305.3047641
302.9962893
309.5786375
308.1206595
313.4559561
318.9693502
316.5928514
315.1002643
312.3368219
310.6388115
297.9486783
299.7703119
305.7920501
309.5337186
313.5387962
309.8105692
304.4670556
302.0524727
299.554292
294.552385
291.9162566
307.5678578
298.3220359
305.6163589
299.6726168
309.4813013
299.6473473
304.5462914
298.7002506
304.9897734
302.4657487
304.8065026
304.8472076
296.8759378
290.014619
288.8704787
291.2776493
296.0622834
289.9557371
286.1641173
290.807539
288.9255358
287.5904854
307.6423073
317.660481
303.8103891
315.915075
307.5953856
305.9178328
307.0356613
310.5755853
307.5944249
302.1304429
296.2261458
291.5282246
296.7313936
303.7166092
305.2606007
299.9248734
301.1968225
307.6373292
301.3013272
303.4874208
293.1948966
296.1681925
306.8738133
313.105078
308.2997329
303.0417336
293.6478882
293.3137311
294.6427331
298.7540096
302.46723
307.0387462
301.8271448
303.1749126
310.6583974
314.1022319
311.2852936
298.3639816
307.1682951
311.1814533
315.6957887
325.7670867
329.110982
307.1734477
317.3007898
309.0372153
302.8570855
311.8869026
317.5205381
301.911242
299.5972596
298.1148166
292.9750226
302.1388216
287.7927186
289.7579632
294.6996362
291.8787666
288.7160533
285.7887777
288.2782233
296.569995
305.4846225
292.5698148
294.9408387
299.04191
295.2574664
296.9594022
306.8732801
302.4589075
308.1844628
305.1790534
301.1537968
313.4660612
307.7054475
285.7233037
291.6173995
283.6373711
294.6333449
300.9759126
296.3118545
305.4028569
285.56351
303.1366526
297.2179194
300.7265069
289.4099002
293.387881
297.687048
311.6848662
309.8426185
308.5659856
305.0774953
297.5490256
301.3719805
322.2609146
321.3902352
316.6368897
305.9021871
306.4732385
307.6306272
296.0458482
307.5720184
299.6968366
303.9058336
310.7134377
307.0373795
309.1459566
308.4031775
316.7223672
317.8035327
317.7445127
329.5046087
315.2826141
320.4377772
310.4099195
309.1425422
309.531526
309.2709553
302.5855558
296.1879867
305.1739173
295.2421475
315.3668715
314.1151613
317.1182429
301.6247827
293.4968971
285.57414
283.7242142
294.2048981
300.9912518
312.1839864
317.6436383
324.309271
334.5498646
330.5891386
334.2201
312.8407779
311.4834565
317.5027874
310.4208676
314.3598688
289.1834813
294.4778971
293.1268226
303.1872121
298.8387306
294.3604534
295.1139047
290.1815702
294.415135
302.0389692
309.5412162
302.8959039
298.5038644
306.4511882
297.0456438
297.4650949
298.7711409
285.9271455
287.9320521
297.890132
300.3020691
295.6578837
293.677897
302.9093833
291.2666922
299.0046651
298.4306734
305.9346029
300.1997968
307.8081818
309.7431139
305.241294
307.5846071
308.9320453
297.7241515
302.0989462
288.6992139
300.461007
298.848323
289.6385706
300.3900866
301.7102433
304.4664979
301.2597519
297.9609717
286.8873222
283.6262833
290.2985948
305.7199112
306.2934664
308.5783122
313.6205613
305.8647681
315.7836497
322.2075542
326.417583
315.6132732
304.4587293
295.9947917
303.6281504
302.1234926
301.1525495
291.7200544
297.7667182
301.9839577
300.164937
306.7744406
307.572079
304.6505663
301.7463188
311.9823297
297.3893228
287.4235325
287.4612163
290.8967871
308.0722784
308.6729016
317.6394268
297.4696785
288.1212355
295.7790385
288.7027907
291.3258022
285.4590094
290.3029154
296.3931295
302.8277894
312.0666445
308.5633684
300.5395145
290.0952227
296.2811934
302.2988179
301.0799368
298.8118822
298.1774903
289.6630562
287.3663389
288.4705035
292.3363658
300.7765208
308.4128179
309.3671482
293.6069113
303.7071953
304.0200188
302.3663771
297.7042337
297.6854913