/*--------------------------------*- C++ -*----------------------------------*\
| =========                 |                                                 |
| \\      /  F ield         | OpenFOAM: The Open Source CFD Toolbox           |
|  \\    /   O peration     | Version:  2.4.0-MNF                             |
|   \\  /    A nd           | Web:      www.OpenFOAM.org                      |
|    \\/     M anipulation  |                                                 |
\*---------------------------------------------------------------------------*/
FoamFile
{
    version     2.0;
    format      ascii;
    class       volScalarField;
    location    "0.0007";
    object      overallT_mixture;
}
// * * * * * * * * * * * * * * * * * * * * * * * * * * * * * * * * * * * * * //

dimensions      [0 0 0 1 0 0 0];

internalField   nonuniform List<scalar> 
5120
(
305.7134831
312.0507289
307.442346
300.1987234
298.8630226
291.5652284
293.6045481
298.6820035
287.5562137
287.2436129
286.7052583
286.2661198
278.6659829
286.7360415
299.945948
296.0398692
289.9832579
296.2850316
294.7196555
299.7707473
289.6205852
293.4091743
299.0898616
289.1141789
288.6550499
307.3211874
302.9236502
301.8176685
306.4164381
308.4934699
304.3237345
297.459982
300.6004247
301.011684
302.160561
299.7940742
306.5253453
309.8307789
295.5379138
282.9487356
286.8030262
294.0350753
294.4306181
298.7282013
303.7459467
303.9920903
299.2778188
297.203126
299.7999451
299.2350849
291.7725662
292.2433839
299.7946673
299.9096478
304.2566269
302.8388082
310.6667547
302.2964486
308.8650386
300.4314125
306.8945913
293.9990975
299.5179463
302.6222565
297.2265459
292.70479
282.7363437
292.5751651
294.5633166
306.6657985
306.732628
312.2023731
311.2955729
309.1688358
299.8121957
294.1841502
296.3131893
295.6867716
297.8285093
311.3545986
293.0651409
298.0894195
310.4497794
303.816659
290.2376004
292.7900633
298.7054847
302.8505477
297.0394582
301.6382667
302.8345233
289.6923961
291.4286827
290.204719
293.3569659
288.4694668
294.8252789
297.5130057
307.8085116
299.080107
301.2512632
309.329482
307.7649366
305.2146355
302.7988416
307.2903104
300.586243
300.469141
297.6232536
285.3173896
286.6620395
292.983625
295.2280793
302.3902603
307.0448025
311.714718
309.1684189
299.8811193
306.2902592
303.9556694
304.0621002
308.4422117
299.9571945
299.7616114
296.7956413
300.1548591
299.3508845
290.0290549
292.3430533
305.3761002
299.5558666
298.7058123
305.1357682
305.3597311
292.4267553
289.8433744
298.9488921
310.6809755
307.5988335
304.578142
283.4501327
287.1364543
292.5697215
298.891191
303.3653364
307.8793912
314.9698852
309.8525824
314.8646761
313.1881132
314.855291
302.449284
294.3312342
293.253852
310.3950857
308.1939645
293.9616695
299.0024653
303.0048908
298.3218179
312.5717813
306.0515945
296.8844741
288.4771224
288.5006827
294.4560986
305.7294106
315.3704428
309.782183
301.2999312
294.3548537
290.5415303
296.7764886
289.3848032
288.4455307
297.0509346
305.2242005
302.0105297
297.2884591
304.3898335
305.3654404
308.2334242
299.7275884
301.0698703
309.5380362
305.4107211
299.0736103
298.5928907
303.6023251
312.3131845
302.2389052
299.4499799
299.2157806
304.4717725
314.7666966
317.9265453
311.2931132
313.8893828
310.0827236
304.3265919
308.5299418
306.1307652
301.4255221
297.9831362
298.0104064
314.8085078
321.689871
322.363999
315.1530639
320.9350724
319.1028702
313.8598038
317.964555
315.3634956
306.2687906
303.5587672
310.0615389
309.525661
299.1206247
305.7291862
298.5419102
297.2776619
307.6892357
307.1948611
309.2055395
305.8752576
296.0839809
300.0586126
307.0259443
306.3974656
304.7047609
303.885076
301.0588194
303.1427919
312.0815394
300.948322
296.2584875
299.3294671
305.8701067
289.2236285
299.5073178
301.64587
294.9322978
304.2630818
309.0452034
309.0554166
310.1786267
300.0799496
302.1281426
299.9611866
288.3539367
304.6669958
315.1897863
309.412263
309.6821842
314.4353615
310.564715
309.1411487
309.3944109
311.7066654
301.2368448
301.0167852
305.6767829
299.7590138
288.1832078
301.1965877
302.4130846
301.8397676
304.4167669
303.2954178
303.2977856
314.3240557
309.9716423
300.531452
306.0356119
298.4667322
297.5172181
296.9483951
297.3324942
291.287536
294.3641935
298.1584647
293.3170367
300.8710484
308.7292399
298.9619549
300.5446092
310.3383376
312.5859202
307.4625497
304.6302163
306.0775323
303.4456189
310.8419317
306.3035091
311.0816638
307.8367283
306.7272494
301.0019382
296.5561115
292.2137263
298.9989526
304.633116
302.7412896
299.5968558
301.0767895
305.4825596
307.542866
305.2200215
306.4546119
304.4913538
311.7534364
305.5995093
302.44567
285.4188301
284.3234059
280.9846844
280.7694393
280.3114558
280.4864739
298.5046697
294.5375256
296.9837653
302.2965913
301.4016968
303.7370956
292.6243617
287.233751
290.618982
293.883559
300.1280834
308.6530194
305.4911217
302.8106627
304.0160791
297.3204516
292.7855934
306.4413318
299.2060274
298.9819318
313.5033492
308.3476845
308.115557
301.9012273
294.4542935
295.9024057
293.3694723
298.4915966
298.4796677
301.5681262
300.0683306
301.2669208
303.9095029
301.7102294
295.3148277
296.9206747
312.1778685
302.3848874
298.1885873
306.7982929
282.2015975
283.1057643
277.2070014
281.3774087
292.2877739
293.0187566
298.4884988
296.4420102
304.1640686
292.6729379
287.6493194
293.5166187
284.9329946
292.0531812
295.2622138
297.4447398
293.5278062
285.4507748
283.1298616
277.4920126
302.1927131
307.4518509
298.0088265
306.6564469
303.5089561
296.932812
294.7115381
293.3557473
290.5770565
294.0992043
289.1613208
292.4559569
290.5933512
286.9209437
286.9119598
290.060083
287.2115069
292.1294082
292.0176538
293.7891395
307.6709029
301.7153894
299.102546
290.0119592
297.723178
300.7433345
297.2467352
294.1824614
292.5933959
290.8996774
294.6558486
287.3087766
287.9165889
289.9270692
284.6356345
294.2074604
289.0491155
288.521175
297.9695927
304.6698791
309.2249466
305.0451645
299.7739317
301.6850992
301.165803
295.6471724
304.2863952
292.5898484
294.1967568
293.9750944
297.6192088
303.1563975
301.0145369
307.6215223
298.0286473
300.6966477
292.0412394
287.429897
292.359305
297.2323973
292.2766831
297.602308
300.8165233
306.2393835
304.8697336
302.326243
295.9072721
299.7279485
299.4043417
307.3848235
315.6980478
306.4895669
308.8131615
304.1882363
313.8806413
308.0496688
309.7722855
293.3341825
290.8952917
292.129339
300.8353454
297.3591002
294.4845716
294.141848
302.0517933
297.1630091
298.8460576
300.2624127
298.0887326
297.3948887
300.1224784
308.6896236
308.9093436
303.2106438
303.2710967
299.0631885
300.4975671
300.4377031
295.9351843
291.8267136
286.4117332
302.0578205
302.5051662
289.618401
297.1456893
294.9546869
294.6958953
302.5859243
307.252968
301.5964218
309.1495024
309.7676615
301.611803
308.4151653
312.8794631
312.9361066
306.3643131
297.516239
292.8468054
289.7429613
306.2259093
303.1529241
319.9146188
324.6097382
304.0459715
297.1156433
296.6092305
291.3993043
295.1004542
298.2059868
304.5009885
310.4451571
305.5787455
297.5629742
296.3003074
290.4663809
301.4371672
301.0298066
310.7518162
308.5834405
296.7184875
282.5438598
282.1864852
293.0073839
299.474803
300.1890945
297.9384992
302.2017533
311.2589795
302.5391388
318.2020861
303.37626
295.4088235
304.9650951
304.4249781
302.5699593
295.6698739
294.9980699
303.0831376
308.5948868
303.4608457
316.7295841
306.2719279
298.3791935
299.7999141
304.0862944
303.3604932
296.8960329
291.2928562
290.9504133
301.7887967
304.0535829
305.931435
298.2828541
299.4320665
297.2415499
300.2385008
287.4738528
279.5618106
287.4287955
303.5171426
301.322255
308.4127747
311.9802962
311.0565618
311.8135176
314.442999
301.9929162
295.6680553
301.0264097
299.3157206
309.8697923
301.047193
293.2124971
291.1523089
293.0297809
298.8416924
296.5025168
305.225917
308.7000406
302.3478
299.1402807
300.9095146
302.6896703
298.2072633
300.0089598
304.4091353
302.5496266
305.6060008
305.3009896
303.9929053
297.3039618
299.9629506
304.6372388
305.8324824
310.4764574
310.6577254
302.7989036
301.3745512
299.6562048
309.5267402
316.074174
305.8934968
310.7167318
304.2308278
301.349279
307.8570083
301.451039
303.3357211
306.0536243
305.5046925
296.3874128
317.4834407
323.2127885
308.6441937
305.1944512
302.1658107
312.6558069
325.2493144
326.3007541
315.6206462
319.3165933
313.2375043
304.3162436
309.708063
298.9311103
305.9457267
307.6975577
302.3139257
300.670743
299.8352377
298.9154891
301.2702724
291.0185435
291.3009879
290.6739464
294.3394695
296.2751044
302.2702838
304.726087
293.5623953
296.5456768
295.1125248
300.81036
300.8348635
299.6652852
304.0180123
306.7754216
309.9629556
314.2080918
308.4542687
303.6799886
308.264718
307.5226048
292.2247269
292.7802682
291.6278102
289.9809277
295.1447645
294.7114682
299.9410341
296.71939
300.7785826
310.7961971
317.7737188
324.3193664
314.7393087
309.3565564
309.4838861
298.1242254
292.9741103
291.6431693
304.4286299
307.8520787
311.5700052
307.3413143
307.3969367
306.3852108
307.9255316
302.7410648
299.1542646
286.7554052
290.3918488
296.5283126
293.3254948
291.6416295
294.6045627
298.6234415
290.1087846
299.8434049
296.9531285
302.2573037
302.5327213
301.939733
302.1112451
313.8155607
299.0524129
305.9252937
309.1554814
303.1228043
305.3528554
306.7080522
305.816936
291.7560265
294.5035661
296.0819048
291.3763142
295.7668334
301.7669175
302.5122909
294.130356
289.1022592
296.5663325
297.3398871
307.0824178
303.8835592
314.4894592
317.5364692
315.0549242
312.1049249
294.3081769
289.7304558
293.9929263
280.010823
279.3643572
277.1539237
284.0935897
289.5570264
293.0017789
297.177492
297.1831166
294.1326924
289.9283336
287.3573405
297.2617422
295.0600423
296.2095188
298.1773603
298.7108067
288.851492
292.5427708
292.0937067
283.6399613
294.8131039
295.6718298
294.1084573
286.2688294
287.9643075
291.3209624
298.497104
303.463538
297.6072005
293.3533072
294.7176544
285.9834078
286.7805907
293.8626043
296.7475816
297.0537705
296.3010419
294.8989169
293.3293279
301.9891726
301.3504451
295.5169493
294.3047351
295.3222528
319.8814143
310.1280143
306.7052757
302.1244671
305.541392
303.6246484
291.013413
306.3601293
307.1942605
299.5043805
310.9371306
309.3944939
296.9051003
303.4724018
304.8770373
291.3422318
293.1397686
300.734662
299.1215648
291.6226436
290.1294217
286.0168094
285.0021416
294.2069989
292.074292
290.0981401
295.1040569
290.8991491
291.4296366
296.0829475
293.4900225
292.3873763
295.6681184
301.2178215
291.9101499
297.1037137
292.7608243
286.2233567
293.5035154
296.7324022
296.9525322
293.0130467
305.9056153
300.5245297
306.0253727
306.0046675
299.8290442
299.7570375
290.192509
292.2562004
294.2316846
297.46215
296.5616853
295.7935099
301.037233
300.2072574
297.3834062
300.507269
300.8785996
296.2572252
304.3511821
304.6857961
301.3117369
302.1438708
308.5077508
309.2971883
307.4890171
304.8629532
304.7091208
301.5518107
305.2198401
292.7984683
286.8565964
301.380113
304.791582
306.3628706
306.1566408
306.5980295
311.2932403
309.3522155
299.3113222
303.9386505
299.3301846
282.4175316
285.288671
295.1225991
296.5950993
295.557071
293.8756149
303.7437168
308.5932308
317.5070446
312.7813958
317.6069093
311.9036459
308.4958895
309.1815359
308.6440493
302.6798256
310.8561393
302.4059248
306.6447464
296.1293996
307.695348
312.187029
311.6191555
315.5282168
308.3663535
319.9232767
305.2891944
297.2201027
291.2164028
294.2859696
299.7029338
306.2854797
292.1668133
289.1068647
287.7599139
292.7756403
297.0226665
303.4330107
301.2214865
297.5385101
301.7793998
295.5689472
292.4486529
293.2761809
282.6690749
283.6276823
300.7988592
306.3223389
313.9375705
307.4145208
306.5986725
298.5900091
301.5476392
299.0858524
302.2514379
295.4799061
281.0918019
298.2035039
307.4305207
311.7848679
306.8510142
305.2566888
309.7646312
305.3867583
310.4648796
303.9254063
303.3341284
306.4424324
309.8882365
301.5080062
303.9418998
301.4233554
305.7172161
302.8960123
301.2678421
305.3421981
317.2613931
322.7623092
313.4592822
310.6532437
310.6453229
308.6324905
294.5418404
294.1641536
292.7699478
301.4372876
306.3698984
302.1382363
301.8838283
303.2200861
291.0869319
289.6734142
307.1443939
306.3599422
299.8463229
296.9340558
290.0758707
294.8320771
296.5007293
302.2923145
312.4908332
321.386609
313.6233897
307.605707
315.5179871
319.3709316
312.2757613
308.407968
308.7153572
298.9161249
306.8295551
293.3521925
288.5851014
284.9528154
285.182304
286.7661525
292.6556583
304.2201174
303.1828786
293.1334097
295.7303564
311.1411572
301.3760717
306.1013229
306.450062
294.9443035
295.9075306
295.7086983
301.298319
306.0402546
302.257304
310.2326019
312.9156955
310.746447
310.1982287
308.4961377
312.1394837
319.0823566
316.6780001
326.2747497
328.094962
309.225787
315.099978
305.9572317
304.2597509
305.0589276
303.0135386
308.6203644
299.7224368
300.1534474
300.326619
294.685804
295.5760924
292.7277104
293.6713858
293.1061122
300.0654678
303.3632122
310.01383
302.7910766
309.798418
313.3787043
305.9221729
304.1337955
307.1722741
308.0233682
301.0328344
291.459503
296.2187538
299.1311852
296.4367523
304.6932211
299.715842
305.7248444
300.8993535
305.3497372
301.1412059
309.1546932
295.6776307
290.0395308
283.0630559
293.1603106
296.1824751
294.0453001
287.7032746
296.5868873
301.3322409
305.9614866
300.6614757
298.6789283
311.9586967
294.75987
292.6374371
294.8511615
300.1576615
299.3004178
301.4789523
315.0254087
316.2675207
309.7626521
308.5329693
303.7515933
306.4967395
307.4334382
311.490703
314.3697662
308.1224459
294.2498079
294.8168327
302.0777821
295.1903435
299.4832785
297.1484315
296.8510357
302.2982517
309.3419356
299.7417984
291.4672235
287.5438232
290.4322311
296.4649467
307.0168992
300.9231849
293.1089166
283.8063237
296.520715
302.2661259
312.1798258
307.6453535
291.5992686
300.383165
302.1234159
304.161644
307.3172784
303.0560903
303.0968813
307.6220011
304.1586183
302.510681
300.8394881
300.3830717
290.8762091
294.2306127
289.7632317
288.7401047
287.8955572
296.8116345
298.9146206
301.447087
304.5323898
292.9217157
294.5685166
295.3040472
294.2009548
294.3178827
295.3848485
302.9630009
309.0243966
307.42918
306.4304947
303.940427
310.7344914
305.674116
300.3043166
307.5319476
298.9824488
292.5724795
289.7451792
286.1014933
290.0453611
302.9527629
298.0116038
296.0410165
292.7817849
286.2586884
284.9649051
295.8929127
294.8797421
300.7505488
298.8878317
304.704877
299.2038142
299.7994846
297.6417877
300.6416681
311.3998554
306.4471172
296.0879794
295.6165908
300.9919727
299.0913939
295.9888776
291.5781936
298.0677596
289.0835032
275.6174107
275.502973
282.1037618
284.7636628
296.7038373
295.9509415
298.7518983
297.438841
304.228074
299.3469989
298.8951111
293.9349657
299.3874238
300.6242144
299.9598278
280.5032758
283.2303775
290.618272
285.6765557
290.5012398
289.1097984
293.0091846
298.5558528
300.5300405
304.1447895
300.0048326
295.5409751
288.3223084
290.4543282
295.1443125
300.4443509
306.2205238
295.5880621
289.4143053
284.5550604
295.2462887
296.7200488
296.8420538
299.2470444
291.8847834
305.3107621
308.5827106
305.815903
302.751652
311.2690437
309.249389
308.8457034
295.854497
302.2938622
307.4744959
300.0690864
297.2879303
307.8236529
299.2310075
301.9938009
304.8572524
303.5299399
301.519683
299.3629673
299.846037
302.8086993
305.2331049
296.6067723
295.2076771
298.4625043
300.749938
305.1440634
306.9265902
298.3403986
300.4692914
306.3952186
309.1537747
308.3355913
312.239284
317.6835255
315.6460269
316.7063241
321.8995519
317.3758049
307.6851671
311.8433379
307.8124156
300.0125806
301.5569703
305.4016955
308.323193
305.3545745
299.9797933
308.3636928
304.6536392
303.697438
309.6896718
308.4830925
306.9072593
306.8469814
300.9164483
307.1450164
290.6084863
288.1837498
295.5456698
306.5305084
301.5931796
306.6060942
303.9951523
299.6105642
302.1628033
298.315648
303.8499324
299.4161916
305.66553
304.6915417
301.5482643
296.2762178
303.6426356
304.6901818
297.2947396
300.9721191
309.5586251
304.1354591
307.8052556
312.3961708
317.7896255
311.5397484
312.6608327
312.5801487
303.6450414
298.4086461
294.2431619
298.6734139
298.7437888
296.8669001
309.7510029
311.7237688
303.0675258
292.1707711
301.3185538
291.7134347
293.5324363
292.9099098
292.3615439
297.4291591
291.7506262
297.2935314
298.95103
306.7608314
312.7621452
313.0830043
304.2119556
307.9139448
298.4068758
305.5209158
305.6558327
302.4014908
305.5436099
301.8990974
300.4821934
297.363774
302.1001366
296.8509266
297.5275761
299.1089488
311.2289705
312.6204881
314.1379239
314.7517676
308.5616398
305.7728072
301.3965021
297.6191944
300.214859
292.1328205
301.3553905
302.0123987
298.076897
295.5287219
311.2236731
308.5515404
312.9035221
317.3623824
313.0625097
300.55427
296.8361443
292.7803076
292.7598854
298.4414211
291.6440353
288.3588481
292.1616521
288.7190367
291.8177968
287.9968969
294.3231892
287.4776248
292.6836124
299.4291587
292.2803814
295.57783
299.2782768
299.0991326
298.4322607
306.6348825
296.6706718
285.0430012
287.7398423
292.3027794
289.2743102
289.0440454
288.2834522
292.394073
292.9304637
291.3359084
285.8555169
287.4190716
291.0279792
290.0384131
302.3125823
310.2221849
300.0282803
297.3288476
304.4307719
296.58109
295.6819576
297.9751061
293.1136872
296.4989571
302.0690022
292.0036753
296.994029
288.2472306
293.3400026
291.797337
290.2789671
290.7857619
295.1602526
291.1637747
295.1764383
301.3358086
297.8747364
299.4627242
310.1361598
304.6587945
305.2032821
307.5649675
303.1408501
298.5431166
301.8927052
302.4990253
297.6539376
301.0953194
295.0962154
289.69124
295.4506531
293.4352511
276.8526216
289.9950802
302.1831539
305.1326741
309.477993
304.8319361
309.0936797
310.1631741
306.9491408
296.7063481
305.0593185
304.7638049
299.8287954
291.5655769
299.1685111
312.5316998
307.2430934
303.6056884
302.8235336
297.1928824
302.3543699
300.3652041
299.6400589
294.9808568
302.3465417
295.150409
293.3524964
294.7441192
295.9428987
295.2708353
301.5190933
299.5647361
288.2076707
286.8458453
289.8280074
296.7479184
305.444502
304.6384428
305.0528588
297.752338
298.6556726
302.8167268
285.7747457
292.0585707
295.8351131
303.2212973
305.4494166
304.409842
295.7473629
295.3539457
290.939524
290.8560154
295.2521011
298.7593831
295.4572278
288.4360763
289.4140266
292.1745465
290.5410775
297.0628538
285.4569529
280.4700791
302.4845134
303.3737622
302.9371022
300.3250248
300.4877463
305.1202514
313.5228181
308.0812539
290.6537521
289.361312
303.0265911
295.9561627
298.2572513
293.4324811
294.2263283
300.9078732
301.2145246
296.6364426
312.5265095
308.9050813
288.6884602
282.0926785
281.862454
288.5772401
287.4803311
291.300833
282.8776832
279.3534477
285.4733998
284.8226166
283.2995959
295.0937636
296.5099803
291.3853616
285.7772563
298.3254556
294.855079
301.616086
292.1823444
287.0774713
296.0446467
298.1591903
300.0899294
292.8748471
293.1196797
295.8112501
307.2967508
306.4596967
296.2128367
293.4867483
293.5465954
290.244393
297.1670031
300.1899868
293.7280996
285.0651644
288.4559612
295.6074385
300.5454604
302.5779297
304.2650691
308.0542816
316.8196462
323.9082228
315.7567666
306.0854468
304.3288067
311.594487
313.7068947
305.2895668
303.1976867
301.4010843
296.0381231
295.3844079
298.5927596
291.0179979
295.2162535
293.8095184
297.3413816
295.7339075
304.2232566
304.6431614
299.9104464
310.7444234
315.3881154
307.2239322
302.0738498
297.5155603
290.8643662
294.0335543
303.2084602
294.5550362
305.1635972
309.755481
307.8219963
318.4819755
297.9631816
307.0271612
304.4920976
303.4013548
318.9515361
315.5066174
321.2812294
307.3883272
305.7419961
308.172559
310.441923
309.370849
302.3891752
300.5237141
293.8400273
305.1572701
308.704915
314.2362398
303.7029161
298.5428482
299.4519847
303.3222995
308.7328118
315.1391545
307.9195913
303.1584778
308.5137221
321.4562497
310.2462929
308.2877741
305.3061711
293.3401788
293.6108098
302.914437
312.0792213
309.316154
307.1319002
307.9035913
309.3442017
304.776042
307.8462011
304.2313661
300.3819361
298.2314594
302.0317569
304.2227833
300.3357614
294.560044
291.8443861
293.7658302
288.2542705
295.3177631
299.4932922
294.5517456
291.1752169
284.9008118
284.7930464
293.750445
302.0559589
292.9487256
293.2069015
292.7825559
290.5675654
296.510444
304.1729189
307.3235274
307.6751311
298.7891119
299.1741845
305.9137271
307.0577638
293.7109574
291.9529304
289.0291268
290.9203576
289.5096502
294.4309879
293.1462518
295.5515612
292.690768
301.4847522
302.7006259
308.8292162
312.829387
317.3894367
302.2271982
301.8418271
304.9430256
298.4052058
289.4947775
294.947428
292.9305272
277.2136629
270.7672933
277.734656
281.1225662
296.00633
306.6281287
298.492033
304.2353343
302.509007
299.4546772
307.6166457
314.5390254
304.5959009
310.6647798
305.9383849
310.9182525
315.8556565
308.5984866
291.1295359
290.2960107
288.1059695
289.9644808
293.048972
290.9554498
289.2908652
295.7407118
303.8358495
299.6802371
290.0328124
296.0054995
316.6788411
307.2392396
299.1617826
296.4986986
301.477458
294.8917306
279.2906809
280.1518836
294.5250699
297.8941441
295.2018381
289.534616
283.4311382
293.8286648
308.6492961
300.0668642
298.585158
303.3297712
313.0530942
297.8700212
293.4936637
299.0871327
289.2959931
283.7969396
283.322463
289.3789002
289.1604938
290.0792972
285.7709682
298.3103194
303.6167518
310.6520203
307.211812
298.1714029
287.6615625
288.9007878
295.283514
300.9806153
292.7733126
297.8690597
291.1329534
290.8984001
299.8734013
300.2858641
300.6473874
301.566361
294.4825826
293.5566397
296.456086
294.7091564
291.3106583
287.5333037
292.3862093
305.5122296
302.0664024
300.8599244
299.7851733
303.3241162
294.9183309
306.1975776
306.0311252
299.9587831
298.7176479
301.0475781
299.1865968
299.7038692
294.331975
292.0305164
298.6325697
298.3300135
295.9255273
306.7449111
300.1696238
297.4253216
300.5655929
293.9230387
304.2922543
302.7991394
303.5328285
303.5290072
299.7400104
298.9749891
308.3634917
300.1319039
303.8397584
306.2216952
308.959323
304.971713
298.9928187
289.9222132
284.5414869
287.5304408
296.4200137
302.7583087
306.1772474
296.8454625
296.7412147
289.7566528
291.6056974
292.9437528
299.6615296
312.5288314
306.236531
302.0466212
295.6155986
294.8638814
287.1667223
278.8749186
285.5850886
287.2586166
298.0743395
290.1572798
280.4081032
291.7442821
299.3425925
297.7736168
292.3143241
291.3931985
291.5857245
286.3192076
291.4815132
296.6106534
300.616515
300.3333203
299.6584736
290.7752549
294.4009649
291.2926928
290.3794755
297.0559368
300.3382028
296.9536523
304.3578649
302.5362034
305.6134413
301.4490942
297.2841456
301.0848514
294.2827139
294.7595826
282.6911813
295.6497537
303.0223978
305.4345214
310.9204984
308.1484468
312.3426944
316.0528357
307.3356097
303.6397613
305.2423704
305.3906628
310.9656686
309.8041552
295.9019999
294.5629805
295.6573667
293.7251373
283.9763601
292.1682727
299.7042849
295.8331722
304.2200315
295.9849156
290.644603
289.4532387
296.5303525
296.3875107
290.9484894
292.1243484
294.8859108
292.2901218
289.937088
288.8373962
284.6510385
294.685094
298.5311908
302.8017967
302.0324303
294.0427782
296.5059827
301.0886896
306.8535438
303.7117412
304.4132776
301.3217067
303.2014385
300.8791206
295.7209966
300.0343413
295.5735333
303.4046019
307.2053259
298.3031067
296.5444442
293.0054372
290.0928255
305.0798443
299.7336701
294.6123705
305.7455916
304.9311843
302.9148033
311.6083233
302.8625283
303.0549611
301.9354811
311.0460138
309.7994571
295.113374
306.8678052
304.0451169
307.3371015
305.5179214
311.0230298
309.9229171
314.4558842
308.7342567
314.2267045
311.857219
316.413417
314.6964924
297.7346273
296.3778195
310.7448196
302.4688884
306.2565397
305.6096845
309.7059861
304.7644796
299.9702293
291.5341969
293.7620067
294.2909381
300.7380951
298.0038626
301.5248906
312.8369766
315.5243554
308.1683262
305.0872182
307.3169562
301.542897
294.2368411
295.2514984
297.6590275
305.5463106
300.5911397
303.894975
298.368395
296.0258558
303.1494359
308.0896373
300.271271
298.8712614
300.7890014
301.3440315
303.2418302
311.97539
310.1577692
296.6452016
295.594112
289.4057634
288.0083349
298.8548484
301.9630698
291.1776953
288.2836411
289.1019278
308.9996246
315.2916312
309.2453214
299.0398848
293.384282
290.3265556
290.215229
294.7268672
303.3935149
301.1807464
305.1344256
299.7844464
290.7161705
303.8465345
314.8203044
310.5853244
312.8432468
314.6372142
312.6892022
306.6211874
305.1425953
294.6418106
286.3402611
290.2822906
308.2031847
306.3596034
301.314794
310.3074837
310.2606862
295.2189977
300.8211891
297.7732229
290.4083864
299.3164282
298.5697692
292.3296532
294.5310897
308.3202792
301.2170124
292.065779
292.2978135
299.1150152
299.9654558
296.081258
298.1655833
305.9119839
300.8988081
296.9616477
295.8244026
306.1727467
312.4395176
301.3888974
300.8540404
310.083317
309.6942288
295.6916662
289.0300652
303.7904265
317.6102051
305.2753468
300.7648717
303.8768049
309.5796954
305.3302259
306.2209694
291.1589535
289.4470961
295.6786275
304.6937006
305.2922184
306.0239098
312.6480279
308.9900171
285.7006876
280.5046854
289.5049366
299.0282535
299.9629257
294.3090306
297.1582157
299.4698431
298.556971
297.9600017
298.0877181
295.5534065
300.3512314
305.9695311
301.2148364
295.7689373
305.4133765
306.5317463
292.7359516
284.4874148
296.2160306
291.5717765
295.111622
293.0540862
293.3467806
294.3758644
302.0045234
299.1514915
302.5615418
298.5975901
292.4576407
293.1093657
300.2935824
315.7384228
303.61881
296.275486
296.5574928
297.1955774
302.3341856
295.9613843
303.415578
305.7820943
306.1635219
307.1606245
316.869316
320.405189
322.8435205
311.1939677
305.1094384
299.8310053
303.9560142
295.5726307
297.7075476
303.0211997
304.8712325
302.9875344
302.9936912
297.3563861
298.1194692
302.0450116
311.2162104
314.8265748
314.0900355
309.6237671
306.7006391
307.875716
308.4396129
313.2412984
324.0829143
318.8991729
316.2745265
316.376201
307.6145209
295.8394484
293.8330947
287.8241549
306.2825229
310.9746229
315.6936578
313.1592
298.0723275
298.7508195
297.9753208
296.0319071
299.2930278
300.3549282
301.0836545
297.7587016
293.4633628
307.7201966
305.7321199
297.3085267
296.7869865
299.6452471
300.4150266
294.6668301
295.6244102
298.5859283
305.5006448
305.4334854
300.1432523
298.5059867
302.8991563
310.8992451
317.2162643
306.3279231
311.2133334
311.6036222
313.6735957
305.0405219
295.9671021
298.3141754
294.3515739
287.6096025
293.910798
301.2512235
304.280376
306.5229288
303.8570964
300.598296
301.5056393
307.3744682
299.1711897
296.2253182
292.3185551
294.3291008
297.851547
295.4895333
287.4317124
286.5509479
288.6908925
291.5624927
306.6589547
312.3877249
305.20873
303.1678147
304.2828944
300.8978939
305.7905463
310.4513285
314.8606671
315.1327975
313.5753071
311.1908846
302.649905
305.992218
307.7335228
305.5825047
306.3062578
306.6127349
300.1738868
300.4673885
294.4811296
298.7974386
299.9652892
309.4296106
302.7163712
307.3092585
300.665931
310.8950419
293.8228545
299.4882903
297.4932739
301.1114378
297.6657497
296.8106956
307.4388618
299.1413213
291.5321797
291.2220369
292.7116542
291.2445793
284.9527991
279.6675721
289.3311172
288.9399074
285.2758559
302.3279315
306.2712557
298.4403005
307.1634697
300.1460474
297.9845272
299.3149916
304.7693904
298.7460025
297.9466709
287.2133008
288.4433355
293.6429802
300.6020763
303.2650523
298.8624108
297.9006732
301.231039
298.410037
298.2761745
288.2913348
290.5546454
301.4513396
314.4540178
306.7804927
303.1039815
297.6719064
295.868933
299.6186026
298.2910966
298.7383915
306.8539899
305.6641833
301.7411334
305.0504613
307.2421451
306.5580199
293.1936246
299.0684269
306.7009586
315.6097486
323.227665
326.7531933
305.9135855
315.953586
312.4837658
308.3219605
312.4897572
320.6519791
304.132308
302.3235563
298.6301641
297.6531538
306.0887902
299.7006021
302.6070011
306.1734006
304.2695799
303.4422096
299.2604635
299.0132869
307.4448369
312.2969477
298.3295906
304.5644238
305.2540376
299.9543855
299.084381
306.8041857
302.635976
303.5385289
305.5629627
299.3292669
313.4882222
306.0253678
288.3771067
296.4100821
292.4569595
298.5457215
304.8154371
303.792213
309.3880934
296.9538148
306.674853
297.7632404
299.5178092
290.2686389
300.2732515
307.4476582
320.9212963
314.7882219
318.7553837
314.5156745
302.4386002
306.8811102
324.9597839
319.4274601
315.9758414
309.8798824
314.2585866
311.6286313
298.4976762
307.4068697
298.9177873
301.3014682
309.138361
308.814257
307.073982
304.9041656
309.3198532
311.0740535
311.7369631
329.9672652
317.5951168
317.4135039
302.4042528
302.390392
305.9101777
307.9609258
302.6948993
298.4811344
306.5154128
296.900849
311.9797834
310.3555657
311.6885676
297.9001614
286.2614574
280.6004937
284.4849907
289.7787915
296.2461208
302.6659612
309.9064431
319.6287747
328.2710334
326.1599117
328.8429129
306.8909717
304.496777
310.5508014
310.2414357
311.0854934
289.4996706
293.4579099
295.4656207
299.7213413
298.3317224
296.3172689
296.3060373
290.4923093
293.1658179
297.8093504
306.2608846
300.0897842
296.8490409
297.1963891
293.3485913
299.4270721
301.5813635
292.963597
294.5017468
299.0893612
296.2976463
290.9168282
285.3441661
298.0715474
291.2730839
298.3795106
298.2677417
308.5480961
302.3864058
302.1366007
303.4120906
299.5001244
302.4155563
303.4677622
290.2551967
296.5456117
281.7709561
286.8689874
289.9243963
286.6116045
296.8332971
294.2758454
293.6827868
297.4738378
291.4978797
286.7774185
286.3063485
293.7801693
304.0334708
308.2639466
307.8249923
310.5518086
306.0111837
308.431876
318.2415357
321.5765192
311.024779
299.5326823
297.2297658
299.8176129
300.0835796
292.8700271
286.3117312
290.9658109
302.1380177
299.6818636
304.9631654
309.3646619
300.9534345
295.5108914
305.2910566
299.6811286
295.5859434
299.6956987
295.5430785
309.3590691
309.8490132
313.1168895
300.7203499
289.7897149
299.1934483
293.110307
300.0413617
292.5326153
294.7809636
297.4807999
300.7961171
310.2537659
307.8824804
305.754934
294.589784
297.9435792
301.1279317
298.7576922
298.3819975
299.4924255
298.8953566
299.787157
293.9895373
292.8673723
300.2205133
305.3831557
304.2330761
291.5337253
294.7018146
299.7629053
299.3497029
288.9630035
288.0600226
287.3541681