/*--------------------------------*- C++ -*----------------------------------*\
| =========                 |                                                 |
| \\      /  F ield         | OpenFOAM: The Open Source CFD Toolbox           |
|  \\    /   O peration     | Version:  2.4.0-MNF                             |
|   \\  /    A nd           | Web:      www.OpenFOAM.org                      |
|    \\/     M anipulation  |                                                 |
\*---------------------------------------------------------------------------*/
FoamFile
{
    version     2.0;
    format      ascii;
    class       volScalarField;
    location    "0.0007";
    object      overallT_O2;
}
// * * * * * * * * * * * * * * * * * * * * * * * * * * * * * * * * * * * * * //

dimensions      [0 0 0 1 0 0 0];

internalField   nonuniform List<scalar> 
5120
(
300.2313147
323.8433304
306.2125815
295.1526941
299.9984305
296.2161709
288.1540555
289.2256106
303.6350449
297.975678
293.9221742
298.5193128
302.5025328
299.9751441
314.5441141
317.5670754
308.1906477
301.4833129
291.3577251
305.6933314
302.6898647
294.5343149
307.8963012
298.0442823
302.2526671
301.1729331
310.1066688
314.1925686
298.0017923
322.1600073
332.9480733
306.5085534
304.2222363
294.046902
290.6792507
281.3721719
309.1801756
329.8408169
312.4133674
297.0290498
287.1380047
280.3802342
296.0970757
293.555435
314.4259812
302.1282975
288.390784
289.4223022
293.8067585
319.059711
307.703288
314.9563898
320.289739
323.4464782
343.3519851
330.5824593
336.3683676
303.0347724
299.3725572
298.2281486
324.587516
318.2628048
318.5855172
295.0471814
281.5967875
296.0209765
279.8790114
283.9513015
315.4890973
314.7147842
302.7029194
306.1355138
302.3394135
308.0847341
314.1329884
313.7291044
320.3249458
331.1064958
320.9996929
332.0717262
272.9776038
277.0604298
310.2839343
316.3021076
313.8598701
299.1288269
302.1203823
306.003473
296.2805176
309.1167537
308.6160124
299.5383635
302.2259968
303.0815805
313.9215765
302.4739694
309.4335129
305.1412812
326.5470128
299.8731464
300.3013154
307.1999201
294.66215
292.2971092
300.4799501
311.0030107
309.9180754
318.5812149
320.7470081
299.6870785
290.8504775
306.6691092
297.9437281
309.3232315
319.8420315
303.9056108
307.3547385
288.686502
303.327126
304.1021666
336.0151211
330.1615839
324.8157603
330.0509868
309.2006689
292.5394337
296.8470312
284.2505118
297.6334885
316.7121672
291.9974143
301.615261
321.0030783
314.7884241
314.3264883
332.9305518
329.737903
324.6011937
318.0650928
325.4174471
305.7285094
307.0744409
298.448584
298.0815513
307.2841964
311.9841211
306.8491718
323.9685026
341.2679947
331.8632842
335.7901504
331.7309428
315.5471245
316.6409454
324.4127526
312.5419179
302.6996842
316.253855
323.4398308
314.7146092
324.0019336
324.632845
314.9598349
291.1612053
282.8859496
297.6268204
332.6824363
368.8485987
337.8247301
326.8484057
315.8742801
304.2892444
293.4643938
283.6732752
298.9915898
321.7615683
343.9136769
310.851539
297.885314
321.6776305
286.0248735
282.2671339
309.1242913
326.7080103
328.2382285
328.3988208
325.3382075
321.7076371
327.4611103
344.7485136
328.5056892
325.0689446
313.6492464
335.5003788
347.2339369
343.1204423
332.7562774
329.844694
331.3431197
300.7245689
325.9558265
308.1020976
284.5727287
298.4807677
298.469744
334.7726688
339.7132181
336.7817133
316.9420057
297.8556862
287.3929276
312.1976849
326.4162676
323.2862406
313.4531339
321.5849625
335.6491254
315.9962154
279.5428775
308.5792164
316.2673064
306.7763311
325.0526963
322.7806725
332.7682396
333.4623391
304.5396461
308.025266
301.5228226
305.2614779
312.6727413
294.0889168
283.1690116
302.0866778
314.8531188
310.8966658
296.1570704
300.166026
303.8327268
302.8206971
329.7629739
324.3897245
291.7509638
295.3310551
300.9346879
319.6272188
318.2760375
330.5113525
329.2569979
304.4458946
292.3054298
342.8310706
338.7364535
340.3122779
332.1330439
340.2874431
331.139831
333.5971188
338.7733224
332.6991647
309.2571804
312.7183463
332.5615491
296.2305622
296.9284331
299.9957888
307.0914812
305.411645
310.9098491
305.4338748
300.3408904
323.2488238
321.905687
307.0858589
320.3210567
304.4056035
315.3249914
298.0843086
304.9434012
297.3222349
274.8357655
267.7867961
270.7625961
285.7078282
295.7352907
299.2543042
277.3439662
291.3688168
289.8382945
290.5590106
311.471965
309.1294483
304.5462703
294.4270254
297.6591891
329.4856032
308.1345724
286.4433461
292.506438
286.8381845
288.1888422
303.170407
313.9377034
317.2934198
300.8665571
316.5538623
339.1503573
335.1078292
319.8098839
312.1971078
289.741948
297.8952998
275.8804863
272.1639737
280.7297993
288.3721321
290.0333241
272.095563
266.4907946
268.3240639
323.3609292
312.5939751
299.5669404
297.2588583
295.9150797
309.7731576
323.2969166
302.8461421
271.8873419
284.2372374
302.5595691
298.3969448
289.7160464
297.076851
290.9453739
284.0515787
299.6121235
301.9528478
293.1981472
309.6213854
302.3537912
305.2350528
310.8575324
300.9600391
286.7824047
286.4667098
286.5811725
304.3628409
314.2077065
294.9468737
307.1485228
298.3595001
315.3019278
340.3514677
299.6912561
284.6693606
305.0707857
300.2059385
298.1326501
296.4758923
288.2892686
280.5675598
275.3660917
275.7818075
292.032392
296.5706819
309.6982364
316.6503096
348.7326968
327.3679805
296.1699773
313.8994523
317.1984249
301.3872074
296.2992503
317.603868
299.7788191
279.8072804
274.5070878
271.5424349
313.1653681
297.4137584
290.6908141
339.0523455
288.4845869
299.5662054
295.6078378
295.5250434
329.5068631
312.2460804
301.9402343
309.3042691
296.1843903
286.0218117
284.3874734
278.7557554
284.127853
281.37196
299.81615
300.3178989
331.8796455
332.7484155
328.5101572
303.2396327
323.8907424
314.3159976
310.9704882
315.5417719
311.9462975
300.9342528
301.2375538
282.9224522
290.7426565
289.263679
290.3816909
292.9311035
285.1596907
288.7889397
292.7439591
312.394441
294.4264818
292.1121776
276.5494532
297.1416606
289.102959
287.8371307
309.4574522
294.88315
300.4482205
298.623683
293.8761175
294.366013
292.8796402
305.6415495
302.6930577
317.4198751
298.4657418
294.2475998
282.994202
273.6834042
306.2434385
319.9857278
328.7185112
319.5381983
292.4951632
295.2252944
292.1390912
295.2464688
283.2366911
294.5160614
304.1139247
305.075817
313.4068857
328.6108257
333.7797553
322.3609413
331.6015156
316.8878176
329.9633758
320.3272325
284.2472151
283.3056066
280.4267655
298.3438219
305.9730615
288.9196745
312.127924
286.7458036
286.4457625
314.0355888
327.5810517
332.1347147
336.7267442
324.8393195
304.9444395
306.165869
283.5097648
271.8597715
268.5007589
278.8552812
292.3136264
309.428354
311.5004061
307.4786142
309.6502714
313.5604827
308.539364
317.2734219
321.3102481
309.0740591
304.6957769
295.4066987
293.8354523
323.2158873
350.6010774
348.5862238
332.023033
336.2119501
327.0947814
299.9219554
338.120968
325.0634884
324.649933
328.4743141
319.9839593
316.6438318
306.4117212
294.3991129
293.1854784
303.148611
314.4861075
313.5952042
326.6303664
323.7456181
348.7353095
288.0181063
309.2605114
320.4593982
328.7130866
337.6121649
315.1922055
303.7301392
293.5945506
310.3760458
327.457457
319.9569757
292.1393826
308.4879569
313.7933577
311.2271432
310.1843895
290.2467448
303.0761216
316.9937617
305.5832932
321.4423952
318.3389201
314.1989874
323.2787879
336.566243
306.5762269
314.877137
311.0257294
312.1710117
303.2500203
318.0348234
310.3001464
284.4811386
260.4423071
274.2467441
293.0047836
290.6320196
298.6062558
301.0781948
304.2866052
290.6337176
281.4559933
277.0583577
293.9889465
303.1997635
318.9886368
311.1220466
334.2439132
337.5554799
319.33462
308.3613207
306.1758719
278.1007172
279.1733294
297.2098238
298.8417873
303.0836264
301.5025123
303.9268537
305.2626651
294.7019848
321.980496
316.8023938
323.2043541
327.8885294
304.1594681
292.8132585
300.915787
313.0700735
298.4350679
305.8848376
310.4767058
312.9071493
325.9346727
316.0054861
306.5776502
304.4898651
318.7241284
339.7257864
326.1156251
321.7483148
319.6906629
309.5100467
306.1134779
290.7104213
296.0744309
312.4707377
305.147871
319.6575395
289.6692891
291.1146416
308.4804768
311.1675154
325.4091592
325.2462601
310.6697599
323.7410262
343.8858509
350.489047
321.6231813
285.6001854
273.7211928
291.2908733
287.1438593
293.8069633
303.2869917
295.8977356
305.1191197
288.1358622
281.6744629
281.5371046
294.6985064
300.9689362
286.993454
288.6820692
284.4439746
272.247933
268.3799702
267.4878171
265.1178277
285.3242182
275.007118
277.4318823
286.9801459
293.2342981
298.8075996
296.9790113
297.64597
281.3271955
305.5631686
299.8623693
299.847097
301.1565688
317.0187136
327.1530856
308.6346957
290.4344163
309.2717782
315.9264508
293.7822564
294.1779974
287.8526981
294.9351561
304.1399317
281.7958412
317.1160031
314.4597546
313.8332024
346.3544402
362.2169324
361.4467873
344.9897576
320.4668884
313.5502037
286.8256752
274.0083362
290.6557485
293.1687676
312.1492022
352.6514517
350.6530651
353.5103568
340.9790958
348.6560273
336.7945284
316.5929338
302.0708417
304.6902417
294.8329098
306.8754259
296.3874688
298.2533021
295.0299815
283.9523346
279.1511085
283.545652
275.2515679
267.3224593
293.7524971
301.4519422
306.89213
315.7714134
329.1559188
336.7635879
324.9876608
318.7622291
326.6580436
304.4358861
298.788638
312.5816533
300.1434396
293.9236445
295.8640413
308.1979747
334.0391726
316.4694674
301.0890925
318.74779
318.8726467
336.1059114
331.0624797
318.1115484
332.8060814
333.9262457
329.5388813
303.821453
297.4936286
307.2902928
282.3871024
278.6481649
293.5124975
298.937023
283.3495663
265.4933221
273.3468631
282.0258037
289.1716297
275.4417014
284.9677649
275.2956549
271.4160102
287.4180821
308.2446473
298.2762385
295.2622202
309.5535079
310.8904755
303.3957709
304.0263433
290.9790822
296.6205017
294.0608555
307.2065151
317.0532743
304.3314949
287.4242039
295.2605369
303.1241359
285.5811851
271.5089801
274.5383877
273.0596881
296.453735
307.7070189
312.9733735
284.0637462
287.168214
298.0646754
301.8330597
305.5054974
303.6832007
278.5258373
329.6443923
333.3644364
301.5771847
319.9293991
321.3166239
313.5556479
304.2305198
301.1972966
304.5040595
302.6108383
319.1008585
315.5774707
302.8199543
285.8930373
285.4616626
293.3870333
310.2982009
314.6144021
323.7695528
312.9747262
319.5800497
296.1944125
326.3396803
319.2615105
308.9377716
314.8889203
326.8037971
307.9909299
305.75768
295.0402234
299.7391886
301.9851632
282.6835607
314.1679966
306.1064775
296.884704
291.2587028
280.7114638
299.6228302
298.4048081
321.4805323
306.5205068
309.8743679
307.8383598
322.2995175
288.5510585
303.5901554
317.3409504
315.1769758
313.1081599
298.8905658
302.4314016
295.6346884
312.3959339
321.1490074
324.6434778
329.4278507
331.7339385
309.1919404
312.5210367
310.1587269
309.7285468
308.1538694
311.315442
337.1423003
321.6621151
326.1921071
330.3010855
332.884688
336.5830529
318.8141255
315.2491374
309.3101596
285.1703432
303.9101892
346.9869846
331.8206814
319.037258
309.6909906
299.8798719
293.1743359
285.3439413
286.3640693
262.4370698
274.2529803
301.3267324
296.4320415
281.8413206
285.6038229
278.7274895
291.3277353
287.9467217
291.5637469
334.9852916
320.3911799
307.9868086
314.1023139
311.8954026
301.5728766
316.8105281
316.4411344
305.08223
290.2379711
333.5156431
338.3848
286.9264195
288.720368
286.0693276
318.0782573
323.512836
322.888651
302.0412001
304.8654048
338.8082734
341.7368316
290.5060674
278.8466325
298.0637183
300.924827
294.2698165
304.9926223
298.4100827
314.029514
317.481955
290.8065213
286.4245231
277.0653795
278.3418652
268.8004804
306.9166732
337.8271243
347.2441328
333.395378
306.3472299
299.812206
321.6478799
330.0977936
317.7230648
308.1383211
277.1657772
292.7624492
297.7746738
310.1178709
323.0255203
340.7121459
325.249882
324.827618
314.4601449
324.2042916
314.3421588
311.1664419
318.6248348
294.9531082
274.9385674
286.5042067
308.7610595
309.7082898
306.5802372
303.8945671
323.2447329
322.9936222
310.1842963
327.6851798
314.6120551
304.6518916
302.2926804
293.2125169
284.4999162
296.6032042
309.2702326
303.2164866
295.6205633
296.1930326
280.2042536
296.9819826
310.9514065
284.5968649
283.5930271
284.9956019
282.0113616
259.5344658
270.1902361
274.7883969
303.9863788
329.0120999
327.1683263
316.7256244
311.7422988
322.075755
312.1367813
311.7281575
304.5060611
300.486471
305.1914521
275.0074656
279.8122577
293.046428
283.1408569
280.7297124
301.1332654
308.6181609
289.6869628
291.0494416
312.9802509
334.285452
314.3063376
315.3947329
303.2360425
302.4178196
292.8147861
300.9997337
293.535827
302.659783
300.3751151
320.2534378
326.0321059
317.2997647
311.7338395
312.1122269
315.4947125
341.7516411
329.7398909
351.7498334
339.8041199
315.3063716
324.0168304
310.2560403
301.5862226
302.4920348
291.3284845
293.393374
287.2339669
293.035623
325.3331607
308.302404
311.7932116
305.8111792
314.5803357
308.8769713
313.3267106
315.8361728
325.6675148
316.6284856
332.9073483
332.2069234
320.3194597
321.2577012
318.6282088
307.3460037
311.2357067
285.213367
312.1420881
298.1960567
283.0812617
282.8105519
280.0877637
308.9571697
293.131581
318.3636066
307.1934068
330.9838084
313.6456584
294.9572944
311.3479087
321.5522951
309.9229662
300.3453247
295.6585663
304.7341198
315.3907709
306.7471312
288.9322158
286.9215458
292.7044327
283.3761673
288.4796376
317.8872159
326.4789988
315.4486791
312.2184319
321.7469567
336.6015772
343.5498863
335.0717861
306.3589247
314.0211447
334.3012565
320.1352876
322.6753868
304.1167317
293.7038902
300.6600576
287.604456
309.3676466
342.0357574
315.1032049
300.4522138
311.4254499
298.4016741
295.6365458
285.6215631
288.5892185
300.3223341
292.2994824
311.9844632
301.1048315
298.4292126
281.6951655
293.8525171
294.9460992
311.3940464
315.7315086
294.2901973
308.7533169
305.1351415
304.5493157
297.0765266
295.115353
302.3064124
315.6682449
305.5841657
295.526889
302.3095297
301.2488655
292.450948
275.236049
263.250576
284.8136042
295.9179389
299.2019135
285.9058063
273.7439567
304.7321171
294.2277723
287.3895653
287.3863792
291.2496097
299.1633535
291.7725946
302.6678796
321.8532188
320.3115677
307.8616449
320.5278315
311.1408024
309.3150671
286.5142679
302.6398292
302.9922636
303.5219258
313.8690091
298.6873007
295.4274518
304.1510727
290.2156341
283.0650765
266.3173877
266.4137381
263.8991232
276.4997372
298.6653627
304.3404225
290.619711
312.1538721
310.4108679
312.4577552
293.428057
294.1090469
308.7947093
317.700054
307.5648345
311.9791849
319.0463034
327.1253857
324.5387152
296.748503
310.7546768
287.4036381
278.167893
267.4787914
276.9237342
289.6681135
310.4387748
296.8455767
308.0331055
318.4757199
314.3024488
297.3690806
302.6200988
307.8334546
316.1092601
315.5898963
313.2089925
299.1842715
306.5313138
301.1237534
293.2152141
281.9730605
268.4334387
272.7584123
273.2642998
271.6445385
292.7979398
309.3387282
312.6360081
303.1258192
294.1188131
296.8971322
303.3706624
308.302837
289.6724296
290.0632782
306.7619353
289.2274958
299.859378
291.4376874
298.4846752
300.4634449
300.7474162
313.1058374
313.7595329
333.0743359
335.8905412
297.5894573
272.9016411
284.7059872
295.8692189
293.016396
281.5518092
305.2875225
312.5442259
306.1883467
307.2508394
293.334888
291.6046669
298.3434786
306.806464
302.1756476
327.3994045
352.2616572
330.456845
313.8164243
296.155386
295.7087545
300.8212773
299.034711
274.6000561
281.9030888
303.7804933
307.4194076
322.7671313
327.9463355
317.0626946
321.1090637
320.6025363
319.4716576
307.9957097
319.0795445
308.0831011
282.7287752
284.2259035
284.1866254
310.6904124
294.6846373
301.9433044
295.9698523
304.0622566
306.0349195
280.8911346
296.7993003
286.321617
289.5864153
327.5223351
277.4594592
264.6715516
267.9658322
257.5218221
250.5881708
254.7042817
278.8307238
300.8612376
294.2528841
289.9820371
290.6731467
305.3119628
304.5429546
314.2815891
305.9865614
309.9339993
321.8120024
319.1997247
301.041685
289.3634395
307.1348849
314.5982171
319.6405491
313.277516
321.7760154
326.578904
298.993711
303.7828668
327.9908427
309.2670477
286.1265563
276.7313
275.2131081
272.6807065
275.6920006
270.4129408
296.2442626
314.1842535
329.7029724
307.1707031
302.4328474
309.8096459
302.710986
308.6774702
321.7185785
337.8121115
313.3740279
307.5213957
315.2423105
320.931316
333.4277909
315.9815908
308.3516037
324.7944454
300.1636565
316.8212046
302.2014867
302.2917648
300.5758795
305.0261765
326.0585768
297.8988332
294.2364965
287.99196
311.2755939
322.3245244
343.8825868
359.9366855
320.4633356
312.2258898
319.6399062
319.5149109
305.1912814
283.608608
286.4275665
268.9457259
282.5579365
286.8001322
296.4418353
304.5740725
318.5692741
340.3868966
341.8517731
329.4039
290.593112
299.9300902
299.9013667
304.0281033
328.416477
325.3878384
309.0693962
291.7300095
293.3794459
298.9342054
299.1604138
308.8235759
306.9478948
303.3506167
306.7465441
309.2302665
281.6771015
288.7895922
295.7646041
306.3996075
295.4404938
314.0091775
301.3264176
282.6271341
286.5510703
285.7660497
282.5430555
299.1093859
302.3144048
309.9731704
317.9782017
311.2721031
296.3585512
286.1949
284.6315762
284.4081498
308.1890776
304.309545
277.5424702
282.9693268
293.7112894
295.5856836
285.3336298
299.3774322
290.1659067
297.5983798
297.7010917
286.8842243
297.9145489
265.9169946
253.6538605
242.2834803
250.445754
260.0023733
277.3374675
279.393517
305.5366698
297.4324313
306.1006735
306.4591115
320.8292986
314.7640745
320.0014726
312.7934947
321.6670191
310.6213417
302.9460911
305.4806317
301.4884555
303.4379849
310.6408441
295.5857782
313.2827647
317.7183751
312.3404547
317.6584722
254.4697107
284.9931075
300.9966386
302.8474428
306.2307899
308.7016271
307.8282344
304.0473549
308.5045605
304.7418411
312.2420772
288.3259787
303.9884243
316.0076648
298.9360001
281.3427528
279.4475935
271.3057781
275.1297904
254.2301804
292.4252454
279.5871727
298.2508454
295.7809516
289.0778749
290.7565238
282.9983841
282.0527481
290.0764208
297.7687989
267.1640832
280.8392951
283.6715011
307.9070324
299.8400836
294.5619584
294.7890985
290.7933779
289.5621287
303.8646155
282.2336817
297.8723615
304.5185051
306.8894961
302.0055429
318.3191624
316.2760786
293.7744953
285.2203024
301.0541142
310.9870264
292.1549291
291.2336422
278.5749527
272.5467109
281.5445562
277.6671024
282.5786925
280.9788309
282.3905568
304.0057749
308.6762662
316.5572112
314.205022
314.4845858
292.3359999
299.6145647
303.5563735
264.7009671
261.7406718
274.7708679
277.8342175
278.4501372
283.1311836
286.0978931
290.9583787
308.2304133
303.403498
315.9580529
309.1468737
304.1765413
279.7899043
285.8717293
303.6722753
298.0916549
322.0564205
293.6093288
281.2787035
295.8758989
289.7989024
269.642312
289.2101299
299.8962526
313.4455658
290.2191478
317.0700266
294.8622613
302.7934074
300.224081
282.6437473
278.2387708
297.3803078
306.3395238
285.9340128
290.9481249
283.9039179
319.4380971
292.638534
272.3680945
289.5553322
285.1220304
268.0351917
269.5810668
283.6809219
282.431866
269.2099971
282.4806768
286.3595316
276.2914752
278.5626744
300.3546898
310.1718196
313.8820759
323.4506978
305.6198153
321.5005975
308.2530899
316.9675543
296.0198502
302.7362803
307.2705987
313.6889788
306.5465452
304.0896183
318.1895823
302.3571621
286.3755396
287.450819
293.2867666
288.987868
324.6684839
297.0981849
287.2033471
284.0399922
305.5829208
296.7004889
278.6591982
267.4254186
282.781009
274.4797155
289.8534587
280.7767049
309.608157
305.0312105
287.9479747
307.9509358
291.5199293
301.7494392
300.896676
304.7445068
336.0278015
345.0731803
334.9247743
334.2440659
313.7256503
298.3731082
310.6341588
315.786854
273.2178483
273.9216263
278.2069776
293.1329268
302.5802048
311.8664216
291.7185928
283.6357902
280.4065351
299.4567745
299.5402927
310.2182091
300.0491634
298.9563975
291.396789
305.5058971
292.6467389
306.0846001
327.9020912
313.6535897
327.2576871
319.702806
317.4371435
291.3919662
281.8460826
281.1866727
306.2427417
321.4523552
320.8330687
300.0025767
273.4304474
299.8129032
304.9940254
310.5756771
319.5527307
323.3887424
314.9417345
296.7748511
290.3640669
305.5427057
289.7644874
298.730827
308.6587355
288.3108349
281.0941039
309.0115644
315.2614482
291.1169738
293.4964082
286.3730244
291.9350694
327.579824
298.6830593
292.3229126
293.9349905
291.2103876
307.3535432
294.6485503
291.3023238
266.6660183
278.4740415
281.7543751
292.2855733
274.5335743
285.343177
274.6977327
286.9007965
283.5177276
310.8321465
323.2897067
321.7892437
306.2727465
311.5382702
297.4603101
301.5295038
306.2941637
310.6039082
291.5080304
292.8073145
291.1807271
282.6043868
256.6193746
254.1478312
270.0910508
291.2328001
286.879805
278.2437269
282.1278311
282.1320465
299.4748769
299.0484401
293.01485
294.7273678
300.0908701
297.022861
309.2028588
333.1524563
316.8042195
292.0254342
306.6272092
298.5497389
287.9576666
301.5700554
312.4259461
310.3838474
327.3209732
312.5654408
296.8897256
282.8117875
291.852163
320.4087035
322.700664
264.4784201
277.9246433
288.6000698
273.4457075
259.4806334
263.7408609
283.633197
291.8438784
284.3498698
279.8194112
284.9185029
299.8861832
321.3781315
313.1274911
320.5984156
308.3695273
341.4928084
303.4986409
277.3355185
276.1238181
278.3564956
288.754539
293.6734272
282.6311882
304.6757793
301.4306745
278.250771
295.4455435
296.8032589
308.5690736
294.2325916
287.6239936
286.5489013
283.1298639
289.166762
300.0355843
277.5050937
277.4715303
267.0296633
285.1196723
315.0687469
310.7778127
308.6789078
310.7022216
302.6081076
320.1499841
319.0253729
302.620023
297.4968935
293.6115827
284.6800648
303.9743173
297.3358622
290.0063364
288.0311184
286.452325
276.9605761
286.4471396
303.0452172
312.6708481
296.8576555
311.7488397
300.8128272
297.7454224
294.081523
295.2526882
312.5175417
313.6174284
305.6667266
331.6537137
321.3038081
312.8540376
333.1359423
326.5978188
321.9128851
314.2792405
288.7233833
288.7121614
277.6809958
279.7708593
289.8061637
304.3957208
314.4610779
301.0942003
304.2612574
305.5937501
308.6207565
297.7507903
287.9096742
299.8046488
299.0257053
298.4093529
305.5895752
283.4954613
287.9478662
283.8842838
289.8247009
298.3340911
319.0782604
305.2572752
321.6482839
293.0825476
284.2834325
302.3477642
277.377153
273.2896067
278.7467
289.5346526
296.05627
293.9671141
277.1760091
261.4544848
275.3550241
290.5957907
283.3230067
275.5722395
271.6640051
268.5513499
278.2516375
302.748831
279.515298
307.8358404
315.2718738
305.8020668
301.2153773
294.4901533
296.8144825
307.8750737
294.9939123
285.6476456
314.0389457
329.6686184
303.0555845
293.1294523
289.0827346
286.0930703
293.3061382
313.2117669
285.7205671
288.5616088
306.3586758
305.3815444
314.7732432
327.6822407
322.1636207
317.3489517
295.8289984
311.3084602
296.8108733
273.2637702
271.4235223
269.9919188
266.8721941
260.7479009
283.2549143
285.5782601
255.9976958
278.2704971
279.9535499
280.3351594
327.5348187
300.6241843
292.1234725
280.3841156
309.323983
316.3604952
304.6792234
303.8654604
322.9243451
315.9127047
313.683741
310.4761227
310.8087628
294.8865089
298.4110186
331.0481655
323.7073878
289.5271391
298.781575
320.6455199
284.5651404
283.5341847
289.3530554
281.2284381
279.9295848
283.0818912
277.9005574
305.4790463
312.1664107
323.4172487
321.3168272
319.9808783
308.1963022
301.8048354
285.4811443
287.8279751
282.8299792
280.9335047
303.9971139
285.6491687
297.8370013
316.1398291
304.4326252
307.7275791
305.2463443
316.5921258
325.2820538
304.7701866
294.7862855
309.1858209
307.3706445
310.8752185
301.1846317
296.4606118
299.5067644
289.5269721
284.7405717
284.462762
305.4437428
316.0970065
310.6896313
311.9493373
326.7013041
311.3472567
307.1887005
307.9056245
325.6849082
321.5758796
305.0738722
276.637004
277.0557873
290.1204019
287.4724993
293.1092342
303.8665199
330.0891584
326.6852495
320.7170896
296.4840391
293.7867503
322.0463896
314.5913744
301.3872581
301.9312498
325.3329165
292.6592369
299.2322523
312.4113478
326.0066659
328.316039
320.4318166
311.2059219
317.9201673
324.0361938
301.3499718
315.073822
322.7907486
329.1319142
309.8314935
309.7872148
281.2457213
290.5032781
318.1390987
307.5155987
275.902353
299.3432574
311.1380419
335.7768989
344.3376023
349.5731517
305.6629213
301.13536
296.6359326
281.1595672
291.0503797
291.257419
294.01258
281.9517823
296.1365463
265.9929111
314.4492147
342.6896169
342.2662726
348.4364828
345.5706211
339.5350761
304.063376
289.2325198
276.4945391
273.9919853
265.9245506
289.4674963
269.229518
267.5366678
278.2775132
282.1163735
282.5447045
298.7581586
302.3068649
304.5715768
301.9131891
301.3142467
302.6432875
295.1596907
293.5689455
281.7171607
277.9967234
278.009774
285.4409687
289.3182525
294.2529184
297.1113866
317.6280391
301.727096
297.0065217
299.5257446
294.6366309
292.6093237
293.0527882
311.8523704
301.9123539
294.4897672
272.4749919
259.4975521
278.6012349
286.9768024
282.8148463
283.114696
300.3389822
290.3968704
279.1709668
283.047511
274.4811017
276.1715483
286.5452499
302.9075058
305.7385236
299.0342876
302.4611254
310.6939692
266.4258612
265.6179371
274.1491392
301.8829266
308.2017983
313.4905265
295.8988302
288.9801558
299.5982537
309.5118852
321.5967645
299.9463478
295.6413423
305.3053167
304.7395474
274.3169321
282.1974893
294.1034735
289.7812431
270.2998011
278.2458365
282.4835037
299.5657876
295.840849
277.6615482
255.1754234
265.2491685
261.3357771
268.8804248
274.9354428
283.5317717
263.1315841
265.2759211
279.6159331
258.2769939
285.7647612
309.0611945
289.0720929
284.7118372
275.7253069
298.2074932
298.102444
300.3031988
307.3525218
324.5280737
305.4710646
302.8387364
303.6273439
310.5768544
308.958387
299.936372
296.3029161
288.8888131
300.388062
292.0657078
270.6770578
268.6277541
263.9298942
284.7927567
290.1905869
324.4217735
326.4709585
321.5918923
332.7318872
316.3638109
308.4116776
313.0782387
313.1607997
308.6008048
305.0704095
299.5665791
301.8799144
291.5805515
292.1597731
312.2286532
313.2053903
330.5367496
331.0128919
332.0955876
335.7790598
300.3375789
298.3993905
291.3692671
279.758439
291.0697953
282.8687955
282.7236388
306.2305019
298.3019276
302.4637821
308.001804
290.513358
303.4034733
311.7609519
312.458369
308.6837059
316.1300631
306.5186454
299.1003431
316.784896
319.0796567
295.215714
298.3175309
304.0635409
320.7204318
306.6247182
282.0919452
289.3373017
296.6451024
311.4413052
290.8955332
295.5474374
291.3069134
268.5392335
265.3308636
291.9485018
301.8809743
301.7511874
319.4469538
311.1934822
288.1454425
302.0331275
303.3948021
299.8142532
274.1433598
264.7724397
274.5545556
278.7042939
279.996615
269.1965467
288.992867
282.6813423
307.7980695
303.0979251
303.0211705
299.6489635
285.6347436
278.0347216
279.0699616
281.895039
305.1786877
312.37227
315.5487378
309.5502678
314.6899288
322.8143879
311.1706052
292.8000939
281.9876369
293.4273417
284.3062054
294.7600065
278.2053389
310.7104964
323.7278305
314.6178561
315.9537178
308.0386964
296.4029389
310.635036
270.2891841
278.2890973
287.8265703
286.0895841
280.2964226
267.1051597
314.6119073
305.0945387
294.9625741
297.3464807
294.9788307
272.9089514
264.9487666
256.1734556
282.2222776
287.6900221
276.1282672
283.8795772
269.0921092
276.4916023
274.350153
270.0687825
269.2247094
270.6673934
284.55799
272.129756
284.6771977
260.0811576
277.4793945
283.0326355
291.0026306
296.0650112
293.9602169
286.946687
280.2783796
286.9997831
276.8729597
269.6958316
268.401416
281.5418409
317.3869891
301.7083994
301.699432
310.3142506
303.8345384
313.0146952
292.8278199
284.8566538
305.6814925
317.2427916
296.7173426
284.8841161
283.6033093
290.0405113
274.5026425
272.0686624
291.4432009
312.6962502
312.8176627
319.3748791
296.8051814
309.3999327
324.185488
327.2061963
314.4911403
330.6774486
311.2814653
310.6385054
298.9220714
310.8774547
319.4395606
335.2617709
341.9831025
344.8992782
345.4436738
354.4015038
348.245071
340.6367496
347.1200451
333.1786582
317.150806
334.4385425
325.6838166
314.8876648
306.0193745
306.1578031
301.9759747
282.6890256
306.8732724
292.1456883
312.5274549
298.0814069
297.700812
312.9410145
321.0682045
311.6782423
316.7715191
326.8185516
320.28951
330.1033011
314.2423951
296.7301197
293.9386979
292.8746448
324.7128554
344.3206524
352.6795149
331.8555677
353.6901424
345.1440577
321.9552799
326.8423493
334.4089628
308.1239616
312.7797137
322.662407
345.011747
323.8373126
304.9658703
304.8929192
295.2975252
290.1922428
302.2969374
311.9630669
299.954647
291.0319336
279.6012072
283.3856937
285.788917
331.6753966
323.7468438
306.9271423
273.6282831
277.1793884
291.1378645
300.7138286
301.1315015
306.6145858
311.5087945
302.314198
297.8635637
292.330715
288.0485974
283.5894829
259.665159
261.9661444
286.3825279
271.0919712
278.4062522
272.02193
283.302076
303.576686
306.6219996
311.4842265
307.2083696
282.882247
273.8373556
285.2397737
306.6419209
298.7553816
290.0846529
287.6063973
300.4135004
285.2833367
294.3156477
301.5294849
299.1994094
289.7148624
285.6161936
283.6986298
293.4255652
287.8683875
290.3370908
262.7008539
276.2457435
304.4341765
308.5329429
315.7321863
316.4853935
302.374528
280.3655794
272.0500673
251.7185725
279.1516119
289.5435713
295.861756
296.6541961
316.1827786
308.8510669
276.5604916
277.2680488
275.8451386
281.7088728
284.1529846
264.8100721
274.76915
257.386687
244.5667271
261.0071196
274.2268171
284.5962708
266.4904286
254.2192353
281.6743205
267.0515368
284.691848
292.218708
305.3381433
297.5554116
313.8937477
305.4475245
300.223688
305.8793918
281.347812
301.9486744
302.9952199
292.6096654
280.487146
300.2134255
287.7836219
292.4807336
265.3248339
266.9695556
266.8559061
302.1761909
297.3380392
298.6959499
312.9782562
289.0229116
272.512803
279.0349882
305.4103247
321.4782758
336.7381048
310.0950722
312.2874536
312.6144512
298.9780811
308.9890039
294.3967537
309.8554674
307.5550123
327.7296009
315.7577925
311.0319115
301.5923154
291.5716945
301.6462666
302.7401155
321.8156682
306.1600063
302.6824927
295.2314272
290.4159662
295.3324894
301.0278739
327.4046492
335.5063236
310.182265
294.0963782
296.2974887
294.8098255
287.6305693
284.7952659
265.2940416
285.8746393
289.9932154
264.3028845
259.2502045
261.1827369