/*--------------------------------*- C++ -*----------------------------------*\
| =========                 |                                                 |
| \\      /  F ield         | OpenFOAM: The Open Source CFD Toolbox           |
|  \\    /   O peration     | Version:  2.4.0-MNF                             |
|   \\  /    A nd           | Web:      www.OpenFOAM.org                      |
|    \\/     M anipulation  |                                                 |
\*---------------------------------------------------------------------------*/
FoamFile
{
    version     2.0;
    format      ascii;
    class       volScalarField;
    location    "0.0007";
    object      p_mixture;
}
// * * * * * * * * * * * * * * * * * * * * * * * * * * * * * * * * * * * * * //

dimensions      [1 -1 -2 0 0 0 0];

internalField   nonuniform List<scalar> 
5120
(
0.4011437803
0.4005054391
0.3984506486
0.3821711076
0.4018581686
0.4080014602
0.4523758928
0.4459814731
0.4348330227
0.4320150106
0.4227314
0.4039541562
0.379029091
0.4148668739
0.4360544013
0.4123540324
0.3986572975
0.3957953994
0.4062261894
0.3912934327
0.4123689331
0.4073519824
0.4377870507
0.4362658292
0.4300370726
0.4597118211
0.4337231017
0.4442299416
0.4619517771
0.4660158867
0.41668232
0.4055950889
0.4054052774
0.3904605013
0.4020560767
0.4078969329
0.4202237048
0.4254479614
0.3897220955
0.3704226709
0.4072472937
0.4402512017
0.4206601201
0.426383073
0.4375827848
0.4163311642
0.4137213116
0.3974759938
0.4076317203
0.3967161173
0.3979622032
0.3937696451
0.4191164587
0.4109722796
0.4182392527
0.4076599205
0.41343519
0.4037462306
0.4247046604
0.4122238975
0.4512531619
0.438785265
0.4512825468
0.4448724801
0.4396303486
0.4351297006
0.4143725518
0.4073195082
0.3907182148
0.4348146556
0.4370192584
0.4433596561
0.4673610868
0.4598318138
0.4306391779
0.4170627606
0.4013880191
0.3791007023
0.3867167451
0.4525630562
0.3866030193
0.3830618585
0.3865962977
0.390777878
0.3743295462
0.3859623956
0.4016210975
0.40377765
0.406290038
0.4240112035
0.4153803766
0.4117675867
0.4147650433
0.3926603159
0.3954985201
0.380472341
0.3968432245
0.4357447913
0.458509183
0.4264502791
0.4365192169
0.4214027999
0.4225263759
0.4215901481
0.4336924591
0.451508741
0.4318182915
0.4321459502
0.4191343073
0.3699204361
0.3786928995
0.3969596038
0.3984822175
0.424636304
0.444106283
0.4516930902
0.464209609
0.4271053831
0.4478986162
0.4536086249
0.4343769007
0.4551148923
0.427331658
0.4218926566
0.4086032288
0.3861257209
0.3774237374
0.3884713098
0.4212330886
0.4570733196
0.4705688448
0.4434549692
0.4327025604
0.4389461663
0.4102796376
0.3996967645
0.4161466063
0.4462719197
0.4605340332
0.4461393623
0.3911808537
0.4014389997
0.4178033868
0.4319949519
0.4285395809
0.4391930275
0.4557081853
0.4579270451
0.464743083
0.4513506586
0.4580252517
0.4558026414
0.4368654844
0.4221058386
0.4605783063
0.4501506888
0.408106759
0.4063848942
0.4122931563
0.4058102828
0.4079382005
0.4013967424
0.3819770544
0.3913552312
0.3927569239
0.3932221796
0.4341608451
0.448039088
0.4434792806
0.4265133847
0.4214431926
0.4246872491
0.436006124
0.3916555271
0.3827159723
0.4016927781
0.4205102599
0.420611856
0.378568461
0.4048451576
0.4265568851
0.4167657553
0.3972923948
0.3955321811
0.4127459235
0.4200639439
0.4270112932
0.4378662801
0.4434592538
0.4671337825
0.4069765137
0.3929230607
0.3930418938
0.3917437165
0.4029860879
0.4145864373
0.4081598832
0.4370897652
0.4315641068
0.4246981989
0.4411720982
0.4405582455
0.4214917771
0.390665903
0.4184672513
0.4507662203
0.4569048101
0.4402176644
0.4182249191
0.4300611142
0.4453920815
0.4549441829
0.4488093367
0.4270797416
0.3905725067
0.3890395819
0.3934135205
0.3833258307
0.3742040541
0.4152161526
0.3986572772
0.3981394598
0.4186988054
0.4412342687
0.4386095185
0.3998580499
0.3909398947
0.4039173534
0.4257025713
0.4220681086
0.4101786997
0.3880503791
0.371819001
0.3677115723
0.3663021153
0.3852471885
0.3762356361
0.3876169219
0.398129209
0.3745825325
0.3974022361
0.3951198214
0.3791464343
0.4007935355
0.4143998783
0.4272493998
0.4130599337
0.3857343432
0.4092814829
0.3827902615
0.3479165298
0.3850426626
0.4232520628
0.4243281036
0.4116559186
0.4170383005
0.4199394166
0.3988465898
0.4094736619
0.42074863
0.3707444811
0.3844831642
0.3963346607
0.372793601
0.3630210976
0.4027591092
0.4196414209
0.4424519315
0.4526674431
0.4314686799
0.4197624693
0.4122833827
0.3982788462
0.3680604872
0.3822371641
0.3583544057
0.3739816712
0.3778270958
0.3986006181
0.3894829161
0.3872696663
0.385785822
0.3808876879
0.4052988118
0.4208951927
0.4000047725
0.378334424
0.4026312194
0.4116969052
0.3942458066
0.3828562839
0.4027429313
0.4110667857
0.412267183
0.3879472641
0.4251611816
0.399793216
0.3988239062
0.3864696944
0.3937599522
0.4067303889
0.4033759247
0.407059231
0.3972266268
0.3749928727
0.3778279656
0.3812701179
0.3938408358
0.397235692
0.3929015583
0.3942984543
0.4037382272
0.3823631658
0.39814252
0.3849821886
0.4100946162
0.4012614525
0.4065854575
0.3969306861
0.3827994223
0.4261077696
0.4365908384
0.4168869292
0.4283305056
0.4265244589
0.4277881604
0.3811161146
0.3989598473
0.3821012388
0.3981196236
0.4259523373
0.4466235346
0.4356043993
0.4490715446
0.4251629503
0.4083193992
0.3895588485
0.4092206015
0.4072380152
0.3992031042
0.4712711289
0.4660774208
0.4470339415
0.4284630762
0.4158856675
0.4091794083
0.4344195006
0.4168587945
0.405856937
0.3859793808
0.3652381319
0.3782825958
0.3659156642
0.3783230792
0.3791585469
0.3883048089
0.440942813
0.4238837981
0.423922535
0.4425829188
0.4073453697
0.3912587967
0.3870104699
0.4140057769
0.4274063474
0.4278372497
0.4104657867
0.4195509732
0.4114458687
0.3893158843
0.3731153597
0.3847682938
0.3576560374
0.372233993
0.3543502444
0.3911925576
0.4002304622
0.4004448306
0.4004397238
0.3990228296
0.4247885327
0.3998202566
0.3780330539
0.3840861594
0.3917933648
0.403142303
0.3976536004
0.3953499886
0.3980698136
0.4050737643
0.3984278121
0.40119312
0.4039028692
0.3934319198
0.4166921154
0.4305215601
0.4457826956
0.4573676058
0.4329576079
0.3961314031
0.4298683627
0.4141756498
0.4117070503
0.3911590916
0.3950999856
0.4039914107
0.3961522776
0.3972697356
0.4130373807
0.41118087
0.4340895186
0.4000643446
0.4078772645
0.410529702
0.4106233319
0.4172268713
0.3823651892
0.3642390433
0.3842160042
0.4139752759
0.4129437569
0.4005347075
0.3995806104
0.393459857
0.4302184416
0.4171707985
0.4306524996
0.3870322911
0.3844664665
0.4086358002
0.4168500725
0.439316576
0.4394361222
0.4452105846
0.4088047226
0.4056848886
0.3814363402
0.3718202232
0.3648151075
0.3894267358
0.4227637774
0.4211008649
0.4216336188
0.4071873851
0.402089713
0.4025111694
0.4147517763
0.4225602728
0.4220261198
0.4026763815
0.4047169814
0.3959355266
0.390451678
0.4175222903
0.4483106673
0.4483855714
0.4536969315
0.4036908104
0.4222255525
0.4202463307
0.4264847479
0.4388538898
0.4235491952
0.4118755374
0.4198805735
0.3999999414
0.4019350624
0.3871442593
0.3929102183
0.4004211194
0.4062785248
0.4260255961
0.4463139308
0.4313817635
0.416596605
0.4073689043
0.4132484435
0.4303531154
0.4173469235
0.4180165386
0.3660855031
0.3934804853
0.4099219782
0.3826402026
0.4265178206
0.4307400485
0.3986428994
0.4157025881
0.4357827032
0.4022392939
0.4084935853
0.4253781555
0.4215269359
0.4267565281
0.4332866105
0.4285351111
0.4261733833
0.3785159832
0.3904674639
0.3824558618
0.4088147605
0.4074863159
0.437276333
0.4519412526
0.3925693793
0.3931080393
0.4069697367
0.4196149322
0.4243448975
0.4232147802
0.4384062771
0.4485545389
0.4145954343
0.424846444
0.4124736133
0.4037276394
0.4405136629
0.4474172017
0.4377735328
0.4357331164
0.4044432209
0.3839939698
0.3861560744
0.4229493869
0.4248054793
0.4000533227
0.40613523
0.3837249314
0.4043195662
0.4070311432
0.4511640588
0.4304721641
0.4334735715
0.446335076
0.4627590287
0.4343251182
0.4062860276
0.3632640924
0.3842497731
0.4134347767
0.3501518002
0.3813801117
0.3854789222
0.3822926268
0.3696922762
0.3980559815
0.4112094617
0.4081706729
0.386404553
0.4006584618
0.414493337
0.4333014004
0.4332963996
0.4404814658
0.4245582644
0.4120266765
0.3990028783
0.3703912576
0.3498020799
0.339343946
0.3723539811
0.3811792182
0.4003863494
0.4282630576
0.4354830922
0.4498600702
0.4584067995
0.4286527766
0.3943089615
0.3906883707
0.3995195328
0.4214110413
0.398058587
0.3687650128
0.3982866989
0.3996103411
0.4165141238
0.3911268428
0.387166699
0.4049889239
0.4441803948
0.41615186
0.4094207302
0.411678328
0.4247717605
0.4293671418
0.4377314539
0.4174364315
0.3962356226
0.4061202582
0.4463634302
0.4188268887
0.4172124282
0.4276952289
0.4257585107
0.4304378627
0.4157543157
0.4123164616
0.4178079625
0.4282180687
0.4008644497
0.4316268189
0.4167487323
0.4199796268
0.4029934866
0.4008130879
0.4222078349
0.4122077513
0.4186088578
0.419742916
0.4049535389
0.3793336557
0.4359182309
0.4284093038
0.3965629996
0.3938254963
0.378913471
0.4014610646
0.4364145061
0.4497742283
0.451101862
0.4199973991
0.3998535177
0.4017779949
0.4018333281
0.395508914
0.4205280322
0.4273290189
0.426961565
0.4081982487
0.4099389846
0.4256548589
0.4197120682
0.4177742815
0.421402309
0.4228400865
0.4184795111
0.4239384674
0.4266278352
0.4344052238
0.3800476941
0.3904545821
0.4160826531
0.4234697673
0.4157841701
0.4085922537
0.3995522686
0.4092094724
0.4231031326
0.4292449724
0.4320782077
0.4427661934
0.4524679635
0.4532265863
0.3886512654
0.386548539
0.3853970194
0.3967651335
0.4059760692
0.398195456
0.3851375884
0.3863304787
0.3846160656
0.4047377877
0.406356659
0.4193143853
0.3865292956
0.4040796276
0.4071886644
0.4214213371
0.4358635013
0.4350781635
0.4673442046
0.4803171356
0.4909234613
0.4826095434
0.4455876535
0.3908968493
0.4028282317
0.4143398887
0.3964400247
0.3702884679
0.391840096
0.4150627452
0.4201501635
0.4231691049
0.4378493309
0.4206937812
0.4116660005
0.3968729085
0.3907121903
0.402369092
0.394995562
0.387988751
0.3909943472
0.4125605676
0.3943444796
0.415177101
0.4225360385
0.3904893033
0.4566886386
0.4445134917
0.4274870992
0.4097784503
0.4128145628
0.4140869386
0.3899856374
0.4075626807
0.4157770151
0.4252729415
0.4187394066
0.405906238
0.4337090196
0.4238824
0.4108693663
0.3837442219
0.4075528432
0.4299156239
0.4731210081
0.4844086663
0.4462318347
0.4121065792
0.4009390633
0.3569009213
0.3589634213
0.3779289505
0.4014257626
0.4062222794
0.4144750833
0.4307327775
0.4147594313
0.4052162224
0.3890367421
0.3662232226
0.4064367233
0.411452351
0.4302373553
0.4454177475
0.4433738903
0.4376990958
0.3789673328
0.3863521231
0.3986579746
0.432080013
0.4261092636
0.4282458503
0.3959959263
0.4275560719
0.4254084153
0.4215138219
0.4281085783
0.4153515162
0.3982833939
0.3871545028
0.3775826305
0.3911571596
0.3956666683
0.4077918147
0.3933049714
0.3699651184
0.3825806107
0.3822380481
0.4357092811
0.4616380037
0.4554756119
0.4340443517
0.4050148831
0.4400841501
0.4141119463
0.4199209979
0.4083175702
0.4368464803
0.4457420633
0.4415661068
0.4283442101
0.397773415
0.3885728554
0.4279813758
0.4046485693
0.3820668264
0.446508001
0.4516914218
0.4200811508
0.4078396838
0.4105860626
0.409338459
0.3883056168
0.3919872208
0.3892736011
0.4024531596
0.4174656308
0.4194067693
0.4020051679
0.435527925
0.420204931
0.4049027109
0.4225632826
0.3932127438
0.3956628282
0.4165952271
0.424298607
0.3850533408
0.4034745947
0.4130587364
0.3830318988
0.4026981308
0.4112728487
0.3935879236
0.3807828407
0.4011371767
0.4010909251
0.4027631469
0.4119470268
0.4287695324
0.4200892394
0.4041554657
0.4125666181
0.4168127333
0.4348074686
0.4243664936
0.4405876606
0.447434205
0.4391812921
0.4222803522
0.4404284251
0.4165350478
0.4122879665
0.3961125078
0.4026923282
0.3887372636
0.4073983736
0.4192952165
0.4234877092
0.4120994313
0.4293231204
0.4444345472
0.4207634204
0.4478768163
0.410107649
0.4150602232
0.4135906933
0.401989341
0.4079904861
0.401113134
0.3973284815
0.4017431414
0.4084717774
0.4117093492
0.4413489305
0.4565621543
0.4075742363
0.4111762713
0.4217819223
0.4103197672
0.3916930897
0.3826245422
0.4133877417
0.4265708668
0.4433422296
0.4261104993
0.464290837
0.445946216
0.4310557884
0.4166543488
0.4404679507
0.4296862282
0.448834908
0.4073426482
0.4152931779
0.3717890829
0.366544226
0.3854251113
0.3869799563
0.3883834314
0.3968807505
0.4371847494
0.3878951041
0.3621684641
0.368801559
0.3990141434
0.4327314759
0.4637637624
0.4165654361
0.4000874281
0.402572156
0.4113454128
0.3932686923
0.3937499372
0.3794551443
0.3868190174
0.3974610757
0.3873237816
0.3795813407
0.3783807752
0.3454690327
0.3439390021
0.3946131395
0.4250992149
0.4439663488
0.4454945925
0.4177851988
0.3800556263
0.3855953687
0.3793366254
0.380790672
0.3625508543
0.3537715315
0.4187136894
0.440889463
0.4371813919
0.4017033088
0.4039387943
0.4071694704
0.4071475712
0.4206105065
0.4119723919
0.4233050246
0.4514302322
0.4285034314
0.4222310777
0.4778536334
0.4510607671
0.447434203
0.4243474906
0.4154201557
0.390994097
0.4253138125
0.434304535
0.4065417348
0.4055760275
0.4247048374
0.4171321682
0.3824599609
0.3952311348
0.4045851261
0.4197004884
0.4410319248
0.4331076936
0.4449365485
0.447185915
0.3851476127
0.3918484883
0.4503002164
0.4655419439
0.4523047157
0.4455089796
0.419121689
0.4273087101
0.4306447073
0.4414271793
0.4481755386
0.4381973569
0.4152031055
0.3805524421
0.404824987
0.4073216773
0.4135917923
0.3985675941
0.4166102605
0.4130280461
0.4224139561
0.3947565324
0.3822301001
0.3859581152
0.4076879583
0.4129343058
0.4359312147
0.4574075758
0.4541215959
0.4291666274
0.4325738224
0.4781374887
0.4414056338
0.4372879592
0.4297174505
0.3901256442
0.3715258783
0.3640661521
0.3819521282
0.4184588622
0.390954635
0.4011962983
0.4149073269
0.4086157294
0.4026556343
0.4077986925
0.419087533
0.4294807888
0.4311611176
0.455306241
0.4459586148
0.414900047
0.4205876975
0.4285262177
0.4308471435
0.433004272
0.4324931632
0.4613793395
0.4353857723
0.40623158
0.3934291379
0.3899750718
0.4144403285
0.4268840415
0.4134447612
0.406977781
0.4236530551
0.4291238417
0.4441817175
0.4159252481
0.4396650113
0.4322687609
0.4188005933
0.4107391168
0.433907575
0.4254833053
0.3942663625
0.3949947446
0.3943390176
0.402993665
0.4160865546
0.44949577
0.4350628028
0.4138947536
0.4025350155
0.4389351813
0.4424405736
0.4465213096
0.4195581745
0.4306566225
0.4103384496
0.4231009388
0.4253497358
0.4146081847
0.4200726234
0.4479870166
0.4534917116
0.4350105534
0.4146812969
0.4104778221
0.4060155093
0.3987080527
0.4099932305
0.4347473568
0.4357220532
0.4010332057
0.4043683256
0.4452891841
0.4314681553
0.4295219215
0.4053906144
0.3940541275
0.3921127701
0.4029007465
0.4261473932
0.4179296141
0.3977211301
0.3740735208
0.3989780388
0.4088998656
0.3909938001
0.3834931096
0.3764023102
0.3960066027
0.4140781141
0.4293594873
0.4195138549
0.4117040752
0.3990500176
0.3980260208
0.4068827093
0.4397172615
0.4309085039
0.3890737548
0.3684486939
0.3837393944
0.3757438385
0.4071373774
0.4030574009
0.3886420052
0.4089897387
0.4059211278
0.4251230308
0.4314857262
0.4099913742
0.4416465795
0.4440700528
0.4416123368
0.4371556817
0.4218426501
0.4277127801
0.4110237213
0.4296161005
0.3987117073
0.3954224491
0.4002086836
0.418087313
0.4208068739
0.4143387371
0.4264177554
0.4280247613
0.4101014849
0.4067563196
0.3843414544
0.3890185612
0.4020388824
0.4382462472
0.4466214
0.4284858449
0.4267683708
0.4038649104
0.4061868571
0.3978619348
0.3905493892
0.4217268671
0.4158688462
0.4176759024
0.4026979841
0.4141954194
0.4089997769
0.4180191744
0.4280067389
0.41335605
0.3907926649
0.4027826369
0.3885193492
0.4067778912
0.4245407277
0.4244120343
0.4223779628
0.431856619
0.4053731795
0.3769696407
0.3755465394
0.3763312292
0.4125780832
0.4263274613
0.4154817763
0.4021637383
0.4028846588
0.4456903143
0.4278127679
0.4219752425
0.4123727349
0.3845457044
0.3637611047
0.3557910883
0.3897643076
0.4017259631
0.4298779039
0.4316486954
0.417744731
0.4172347415
0.447427078
0.4501521707
0.4248708007
0.4063518666
0.4289611387
0.4383518395
0.452146412
0.3317990619
0.3610180922
0.3652252727
0.3873403286
0.397256431
0.4098230258
0.4256266922
0.4176229546
0.4205426103
0.4384343704
0.4190289155
0.4249311308
0.4134850133
0.41904607
0.4480542725
0.4514068419
0.4514643651
0.4032595644
0.3873095598
0.3587458033
0.401138564
0.4059030385
0.4002071601
0.4055583925
0.3753091867
0.4207415239
0.4247251232
0.4184137093
0.3996288755
0.4036507594
0.4260681976
0.4052807925
0.3975319477
0.415509226
0.4102238723
0.3845845678
0.4019281688
0.4235044541
0.4136895647
0.4257761439
0.4247920815
0.4359913757
0.4500143729
0.4704124505
0.4475105689
0.4253251
0.3936442882
0.3784630142
0.4046634305
0.4213558047
0.4036670405
0.4137189242
0.4351088388
0.3998100117
0.4258323827
0.3980808231
0.4014207776
0.3863804338
0.413029693
0.4312293478
0.437265526
0.4149467832
0.401501059
0.3907343352
0.3936438354
0.4026384847
0.3955542262
0.3929450669
0.3793043662
0.3875742433
0.3943597547
0.4107919906
0.3948447511
0.422095978
0.4039712521
0.405474955
0.4348375179
0.4235768852
0.4107847994
0.4259354334
0.3837344602
0.4280345919
0.3795947681
0.3797198682
0.3838801198
0.4267802716
0.4139968772
0.4133441468
0.419420239
0.3893516749
0.4063796163
0.4084418341
0.4175184565
0.4022986404
0.4108084178
0.4150873995
0.4013844217
0.3966640814
0.3950821153
0.3833867452
0.368058967
0.3781928061
0.4069233815
0.3802502492
0.3875345292
0.3950980973
0.4470779477
0.4312367986
0.4294186239
0.4439466581
0.4131316903
0.3912303206
0.3818434673
0.392410252
0.3858053116
0.3978827537
0.4156606247
0.4313715082
0.3943181843
0.3716152486
0.4123771343
0.4025325526
0.4039375776
0.3987965329
0.4003486033
0.4171328626
0.4039080101
0.4024952117
0.4065951544
0.4092096328
0.4409368072
0.4558022619
0.4364767219
0.4596592301
0.4355075237
0.4354344559
0.440526896
0.4347442261
0.4360735771
0.4310816874
0.414111115
0.4117451888
0.4254992442
0.4271712421
0.4243533515
0.3988995774
0.4046218234
0.4131770239
0.425845458
0.4262536685
0.4287885588
0.4349187791
0.4063864605
0.4021109255
0.4121344136
0.4005792321
0.425092552
0.4178071263
0.4162169775
0.4321155892
0.438749737
0.4569247008
0.455310611
0.4565942496
0.4411095768
0.4210841599
0.4018846283
0.4017883171
0.4107891642
0.4289391558
0.4323050331
0.4213455221
0.4359812057
0.4138468668
0.4185915872
0.4247471757
0.4365420372
0.4136065575
0.402717455
0.4284020082
0.4322619892
0.436457539
0.454697166
0.4406041375
0.4579957799
0.451921388
0.4194561689
0.3776138884
0.392961311
0.3814550357
0.381398211
0.3857675336
0.390833997
0.4159211556
0.4256739986
0.4278916918
0.4285199624
0.4514756707
0.4348967864
0.4300112211
0.4347416862
0.4533103447
0.3974820802
0.3976856014
0.4072173767
0.4056741223
0.3772774643
0.3954420952
0.4041331011
0.4196583546
0.4572329685
0.4214669306
0.4394547225
0.3922530197
0.3942338755
0.3666587799
0.3907654944
0.3811960443
0.3845665949
0.3878538028
0.390085325
0.3968054849
0.3903347805
0.4115480762
0.4284610277
0.4189286987
0.4288698916
0.4346514632
0.3997528378
0.3927260889
0.4096176004
0.413720237
0.3936921747
0.4186300989
0.4193782798
0.4013137043
0.4241412462
0.4054143849
0.3677403369
0.3954600632
0.3858555065
0.3986995576
0.4139297165
0.4441629075
0.4332325032
0.4228155606
0.4131461632
0.3760691155
0.3745872943
0.3965012204
0.3689908778
0.3607501287
0.3623501238
0.3954864445
0.4028553991
0.3995538066
0.3851094768
0.3445786503
0.3686060376
0.3694451795
0.4239090302
0.4028834668
0.3975817838
0.3988534867
0.3922960285
0.396396638
0.4023318293
0.4014338601
0.421977799
0.4012709341
0.3928330432
0.3746489646
0.391830804
0.4013326804
0.4271791317
0.407328432
0.3841821192
0.3785691697
0.3980386747
0.4047185004
0.3992754737
0.4429662048
0.4279066511
0.4502583142
0.4431833829
0.4575103033
0.4394863226
0.4219164226
0.4081024628
0.3958728097
0.4012708254
0.4284933662
0.4140953215
0.3949911564
0.3979192859
0.4022508232
0.4174605475
0.4303845572
0.4331653973
0.4045296532
0.4317445915
0.4249016128
0.4380194559
0.4181869976
0.3956542011
0.3858875009
0.4059949829
0.388499304
0.3713682503
0.3834838135
0.408898965
0.4243087259
0.4606258043
0.4268661391
0.4274411456
0.433050425
0.4537234606
0.4243648697
0.449049455
0.4431438283
0.4014153643
0.3970702421
0.4005494494
0.4058174528
0.3935213798
0.4067881968
0.3894853186
0.3948071853
0.4281337093
0.4184315312
0.4028483461
0.420414146
0.3952068002
0.3952689807
0.3906515379
0.3987587811
0.4220562518
0.46899345
0.4548681287
0.4292973901
0.3776928938
0.3889013889
0.3865955478
0.3966892484
0.3975308932
0.3965929303
0.4271315056
0.4474640982
0.4299491496
0.4250733168
0.4214853965
0.3859624034
0.3726071468
0.400609727
0.4204362835
0.4215155108
0.3912979011
0.405904381
0.4109009645
0.3987925224
0.4039982073
0.409611106
0.4390678204
0.4469549734
0.4510695155
0.4184674618
0.4236298309
0.4325996996
0.4422267815
0.4119910233
0.4300560676
0.4328319816
0.4090099018
0.4134298509
0.4022697892
0.4125809999
0.3927739432
0.3822528413
0.3809653885
0.3681734108
0.4036060597
0.4240179368
0.4223424683
0.4145833722
0.4367026285
0.4205046955
0.3924964294
0.4103163581
0.3753645502
0.3885675545
0.4073949641
0.3980280869
0.4053111282
0.4251774861
0.429773748
0.4485574825
0.4215974821
0.4194730883
0.4066746637
0.4086798166
0.3936797968
0.3782043046
0.40024425
0.3943099592
0.3923675112
0.408412753
0.4159432514
0.4178730031
0.4018159025
0.4013013713
0.40025718
0.3970192642
0.4275146947
0.4268661518
0.4033691503
0.3905419271
0.4022411688
0.4221310198
0.4421808129
0.4238887383
0.4587043003
0.4523585729
0.4434120956
0.4388118778
0.3944566358
0.4080106548
0.3850746914
0.3677353583
0.3893543644
0.416383829
0.3937763505
0.3831687621
0.3786413409
0.3906275494
0.4210393259
0.4222713316
0.4281322381
0.4178864487
0.4054133722
0.4072053679
0.4537103186
0.4490193342
0.4475700464
0.4151520304
0.4105249557
0.4189623177
0.398659948
0.4189169954
0.4239504888
0.4321469072
0.4168965855
0.3973638533
0.3882693548
0.4201797903
0.4548622223
0.448470695
0.4533241034
0.4428592877
0.4242526092
0.4192412211
0.4718028889
0.4365430408
0.4133694982
0.3935298596
0.4056110156
0.4431857599
0.4505472617
0.4072555948
0.3958767562
0.3726662893
0.382021145
0.3732593513
0.3828238277
0.3922065711
0.4022743169
0.3791884743
0.40863609
0.4339552726
0.471265039
0.4792914421
0.4423668918
0.421207211
0.4174931634
0.4236380839
0.4256925282
0.4002541031
0.3913285403
0.3664627843
0.34317339
0.352014776
0.3715192627
0.3855857781
0.4240028466
0.4455238617
0.408612776
0.4273673863
0.4174208128
0.4142260183
0.4247515004
0.432026056
0.431848862
0.4256351317
0.4390879709
0.4212070308
0.4314091034
0.4215825135
0.4125373608
0.4239461969
0.4157771583
0.4081881495
0.4062105676
0.3999726381
0.3803139888
0.4036876984
0.4422198212
0.4260263256
0.4184997285
0.405575163
0.4755362602
0.4415407298
0.4453626926
0.433392071
0.4470507485
0.4296721923
0.3924422186
0.3681297224
0.3923662523
0.4162792984
0.4213209785
0.4316112486
0.4154178879
0.4347182294
0.4563013996
0.4311587186
0.3991982896
0.411442601
0.3986511369
0.4004016072
0.3992441716
0.438041583
0.3905323393
0.3758153342
0.38068816
0.3939150547
0.3775977631
0.361202618
0.3629504992
0.392176893
0.4086857471
0.3958763849
0.4100380604
0.3662953494
0.339440764
0.3589583112
0.3756207518
0.3952173622
0.4027791233
0.417204943
0.4067683615
0.4017374421
0.4292082588
0.4318990478
0.4195654833
0.4299500687
0.4026091312
0.4241115016
0.4357222194
0.4250843207
0.4061347669
0.3787208047
0.3828950756
0.3942409049
0.3979989141
0.4015608544
0.4101473014
0.4118808251
0.4025688458
0.4336973865
0.4188924818
0.4079508152
0.3966271191
0.3989690151
0.3887939025
0.3821079942
0.3870365008
0.3725806475
0.3997716897
0.3964414464
0.392984061
0.4407878534
0.4217185815
0.3977491391
0.4175771468
0.4041215609
0.3960024984
0.406480488
0.4234729424
0.4242565567
0.4183438244
0.4239375801
0.3906048763
0.371771803
0.427346804
0.4345317642
0.4334567273
0.4217558606
0.4135638351
0.4076368765
0.3948413742
0.4060477962
0.4247015776
0.4585083419
0.4678802765
0.4689794188
0.457155276
0.4287105092
0.4319766075
0.4211446059
0.4073474302
0.4242458948
0.4617928815
0.4536355748
0.4185406747
0.4106830095
0.378704105
0.3705890405
0.3963763446
0.4289372107
0.4567794971
0.4213405529
0.3934420848
0.4250398625
0.4262271998
0.4117246945
0.4175640878
0.4058462946
0.3763563908
0.3916105347
0.3986838627
0.4226700051
0.4268724191
0.402931572
0.3926519916
0.4081527112
0.411003309
0.4222574235
0.4064423764
0.4150303362
0.3929512344
0.3830869914
0.4121029997
0.4113522849
0.4328943141
0.4189917994
0.382682671
0.3853100442
0.3876326334
0.3956038837
0.3702241789
0.4078122205
0.3920841365
0.3975616815
0.4180758122
0.4003574139
0.4108194569
0.4246813834
0.422045417
0.4175763004
0.414602121
0.41599921
0.4163495279
0.4026652201
0.3743149566
0.373038332
0.4023786558
0.3847960668
0.3917587711
0.3939735276
0.4039149278
0.3821985599
0.4480028422
0.4332562437
0.3873221603
0.3941466884
0.4374898263
0.4315025818
0.4365431628
0.4394902043
0.4444694476
0.4271319878
0.4147531761
0.4195619688
0.3872695365
0.3958718505
0.394839303
0.4289774141
0.4113944252
0.4008599445
0.4072298584
0.4491500301
0.4255306361
0.405792471
0.4260490875
0.4300920966
0.4192645063
0.4116643345
0.4175965638
0.4115921989
0.4111989437
0.4346679378
0.4406747669
0.4148752149
0.4471927898
0.4166499247
0.4151023188
0.4388439274
0.4084122435
0.4021872666
0.4339562998
0.4413831188
0.3726284946
0.3905020078
0.3833925666
0.414735539
0.4129012869
0.4281966835
0.4357768992
0.421082165
0.4249783783
0.4190660983
0.4141088575
0.4311421824
0.4269518136
0.4501215946
0.4488343956
0.4177858782
0.4035942248
0.4121961839
0.4166562115
0.4097650953
0.412637499
0.4219574704
0.4648901119
0.4383461086
0.4376828305
0.4311415284
0.4396939737
0.4498907059
0.433664857
0.4311519476
0.4217735469
0.3963619736
0.4075958781
0.3932281564
0.4046337154
0.4274324155
0.4265805566
0.4298353946
0.411419235
0.4374227457
0.4295180034
0.4147654146
0.3910244305
0.4188022267
0.461675311
0.4532916598
0.4692595557
0.4556655097
0.4368333109
0.4425573764
0.4478179694
0.4577578629
0.4427369223
0.4208943983
0.4060550788
0.4029488821
0.4219627448
0.4240752706
0.4050839164
0.4056659004
0.4096431739
0.4229896399
0.4381703062
0.4235304019
0.4121735116
0.3932723842
0.3919050242
0.4299781666
0.4491977686
0.4257118465
0.3967597825
0.3819844242
0.3901208467
0.3753443746
0.400319995
0.4406097047
0.4277987749
0.4189933567
0.4233841698
0.406186803
0.4045198388
0.4288918861
0.4318105403
0.4334198739
0.4504036002
0.4472557711
0.406273139
0.4150717246
0.3957745144
0.3827588427
0.3762459165
0.4216671888
0.4220696901
0.397943667
0.4281968922
0.4016737867
0.3697938557
0.3794573087
0.3748116008
0.3738574312
0.4102581025
0.4091251408
0.410771039
0.4322009095
0.4595627736
0.448347323
0.4293999031
0.3869007343
0.4075842629
0.4268886647
0.4470942355
0.4516644611
0.454442035
0.4403182765
0.4191555326
0.4142882164
0.4438979799
0.4445685637
0.4474716782
0.4231933366
0.4103458608
0.3967383997
0.3590527126
0.3426668626
0.3819264052
0.41388255
0.3980320617
0.3879765734
0.3961174248
0.416723899
0.427128241
0.4185069981
0.4115073725
0.4012325372
0.4090216666
0.4360682305
0.4336356527
0.4507462572
0.4438751197
0.4126691724
0.3826335435
0.3673974649
0.3773575929
0.4071334014
0.4172223941
0.4110714387
0.3987802581
0.4041489912
0.3834503058
0.4095574735
0.3948945174
0.4096115047
0.4166840706
0.4299607663
0.4109815055
0.4007849748
0.4267878573
0.4221934288
0.3735144057
0.3660338802
0.4192429749
0.4009071742
0.4097854581
0.3985517618
0.4091488599
0.3895818717
0.3906098049
0.4023225624
0.4228986838
0.4227049417
0.4149972372
0.4162082948
0.4464336584
0.4578457675
0.424633172
0.3988768437
0.4109140138
0.415934482
0.4061201406
0.4105241256
0.3945697626
0.3790219296
0.3765370796
0.365849688
0.3802159946
0.4078744461
0.4368499898
0.4145798875
0.3832119144
0.3717541741
0.4025340663
0.3984461609
0.3905236475
0.4268652699
0.4225143481
0.4291802444
0.4050659153
0.3796927279
0.3949364209
0.3968877673
0.40617009
0.4230614485
0.4076572124
0.4045181627
0.4231036095
0.4207197229
0.4056621387
0.4201013181
0.4322603549
0.458209827
0.433241742
0.4149737446
0.3778009137
0.3604312255
0.364764404
0.3589273258
0.407957098
0.4258989467
0.4378402836
0.4155150284
0.4249047436
0.4180110882
0.4028541009
0.4050100459
0.3981490188
0.4066751721
0.4186615116
0.3895193887
0.3557167467
0.382989402
0.3940445002
0.396013288
0.3914851966
0.4083983421
0.4206245918
0.4246018967
0.4153873136
0.3929957036
0.4139453589
0.4332462863
0.3799216799
0.3993478321
0.3951286279
0.4405617547
0.4583826742
0.4319142931
0.4289735565
0.4226978148
0.4230778789
0.4320158378
0.4126542046
0.4193910527
0.4091353359
0.3848702912
0.3792158403
0.3775248714
0.3824509537
0.417232817
0.4203754135
0.3906900306
0.3993812239
0.4289338701
0.4217485839
0.3950507677
0.383480613
0.38724021
0.4172226284
0.4076212057
0.396129755
0.3900844746
0.3994726291
0.3922110858
0.411880291
0.4352344044
0.4357300125
0.4558752154
0.4454365171
0.4270335327
0.4177705885
0.4300686031
0.4701114087
0.4736629492
0.4534915413
0.4145896227
0.3753132094
0.3890768684
0.3959110317
0.3791986777
0.3759957986
0.3964584274
0.4052312317
0.4026608391
0.4037260107
0.4166903982
0.4144416354
0.4077747742
0.4072672463
0.4342411325
0.4300301162
0.4507237845
0.3870035794
0.4101058748
0.4146114998
0.448771401
0.4119128998
0.3982427255
0.4047648411
0.3863585731
0.3752774954
0.3591563337
0.3765822409
0.4028021223
0.4136321571
0.4060704863
0.4348184969
0.4258541005
0.4162098457
0.4486160535
0.4338968486
0.4071601382
0.4650971897
0.4450709378
0.4354008403
0.4126312923
0.4221096323
0.41178775
0.4222653207
0.4016951142
0.4165377524
0.4440911089
0.4451695455
0.4417507968
0.4114732224
0.4130154547
0.4228072603
0.4232355347
0.4307565864
0.4014974558
0.4194033182
0.4382344213
0.4190418593
0.4316632116
0.4229750783
0.4197151083
0.4210247503
0.4142018505
0.4160015562
0.4115604607
0.411020311
0.3996226966
0.3966267548
0.4021227621
0.4383637689
0.4200577655
0.3860053714
0.394575562
0.3997005743
0.4245953686
0.4190593412
0.4450467088
0.4031270854
0.417584075
0.4199087327
0.4045573234
0.4325922383
0.4485119372
0.4216284843
0.4358057653
0.4212471533
0.4045675899
0.4033935094
0.4052552977
0.4232653846
0.4377014076
0.4509401641
0.4397962019
0.3911325525
0.3988221719
0.4032390935
0.4083510547
0.4066034607