/*--------------------------------*- C++ -*----------------------------------*\
| =========                 |                                                 |
| \\      /  F ield         | OpenFOAM: The Open Source CFD Toolbox           |
|  \\    /   O peration     | Version:  2.4.0-MNF                             |
|   \\  /    A nd           | Web:      www.OpenFOAM.org                      |
|    \\/     M anipulation  |                                                 |
\*---------------------------------------------------------------------------*/
FoamFile
{
    version     2.0;
    format      ascii;
    class       volScalarField;
    location    "0.0007";
    object      p_N2;
}
// * * * * * * * * * * * * * * * * * * * * * * * * * * * * * * * * * * * * * //

dimensions      [1 -1 -2 0 0 0 0];

internalField   nonuniform List<scalar> 
5120
(
0.3152581137
0.3135923919
0.3184281639
0.3012438869
0.3045226208
0.3111765274
0.3511364547
0.3458578406
0.3273543793
0.3263930045
0.3247129299
0.315019356
0.2846809761
0.323740573
0.3418548739
0.3167208766
0.2962336762
0.310444398
0.3231541018
0.3012385355
0.2997127029
0.2965790873
0.327268148
0.3331133099
0.3306192257
0.3565812655
0.3267175047
0.3386522108
0.3705284203
0.3563200565
0.3054003798
0.302952837
0.309323695
0.2997224261
0.3053707131
0.3168969906
0.3176043487
0.318487615
0.293438507
0.2775052945
0.3249385746
0.3514979778
0.3295459652
0.3346629374
0.3329661986
0.329815737
0.3305078302
0.3183779566
0.3275186168
0.2994523193
0.305730802
0.3000044308
0.3275213139
0.329608675
0.3200539295
0.3145717497
0.3170648448
0.3141884736
0.3348417722
0.3277469196
0.3557586942
0.3393177313
0.353735359
0.3606523972
0.3574979516
0.3504462759
0.3304457237
0.3154383929
0.2834026097
0.3255208501
0.3271280465
0.3408848532
0.3590057232
0.3539487927
0.3270532045
0.3221646065
0.3117732091
0.2847880245
0.2991474373
0.3607536473
0.3113824712
0.3102056534
0.3027085098
0.2955992564
0.2733884359
0.2862946752
0.2953113039
0.2961198139
0.3064915189
0.3158054412
0.3092216772
0.3130091154
0.3221314478
0.3057024267
0.3063861073
0.2867680196
0.3079927668
0.3411829581
0.3522195348
0.3366908339
0.336093237
0.326240428
0.3313582597
0.3329245196
0.3363894118
0.3417025451
0.3253625253
0.3221539456
0.3107735892
0.2747938769
0.2920302911
0.2897223886
0.2959236976
0.3088790484
0.318740364
0.3477004601
0.3652298362
0.3366197343
0.3501442482
0.3509963367
0.3295227532
0.3475753954
0.3211207976
0.3124868038
0.3134007594
0.308389152
0.2973173316
0.3042886301
0.3213107061
0.345033027
0.3691316229
0.3487349739
0.3287169149
0.3554728258
0.3374965455
0.3066049666
0.3142117835
0.3400850095
0.3588103371
0.3440006495
0.2902942503
0.2900817356
0.3116754107
0.3295742933
0.3214380427
0.3251499371
0.338756885
0.3407238124
0.339813341
0.3425464353
0.3427955175
0.3493652398
0.3384057922
0.3196715749
0.3508449396
0.3555722635
0.3257263651
0.3204403495
0.3260195806
0.3077087625
0.3116651536
0.3062474352
0.2932207846
0.3104730582
0.3200075734
0.3150965932
0.340789576
0.3276887095
0.3206670428
0.3119725972
0.3132780547
0.3180308839
0.3398254403
0.3078282595
0.2978661127
0.2949683847
0.3004147715
0.3232847042
0.2862077306
0.3085217853
0.3432745055
0.3427308543
0.3249355349
0.3084457569
0.3181801479
0.3181631931
0.3190963055
0.3363254012
0.3539991726
0.3720167905
0.3130389899
0.3047339548
0.3004484404
0.2829800964
0.2932580022
0.3092734554
0.3090748709
0.3333618355
0.3320301225
0.3309724727
0.3284180174
0.3357526279
0.328900844
0.30562669
0.3268666864
0.3433760049
0.3472232724
0.3376828079
0.3289813025
0.3528272509
0.3684537777
0.3498624372
0.336206584
0.3281384521
0.2915982303
0.2866375948
0.2904411264
0.2876134607
0.2929987736
0.3205514008
0.3053256241
0.3068643228
0.3206414564
0.3371248994
0.3394709591
0.3193688983
0.3140181462
0.3182358722
0.3450396855
0.3295340287
0.3139152656
0.3018925198
0.3004973275
0.2889872336
0.2900849264
0.2994426672
0.2914854973
0.3066623219
0.3214895633
0.2900995344
0.3008079566
0.300719681
0.2960231238
0.3150423833
0.3257631788
0.3294485946
0.3220623139
0.2919267182
0.3102316909
0.3060227985
0.2756039711
0.3035760305
0.3307934829
0.3329028632
0.3199813924
0.3290350242
0.334986041
0.3133215118
0.3193858366
0.3275185544
0.2907802553
0.2923608864
0.2981747422
0.2929861979
0.2775752647
0.3194291815
0.3244195722
0.3390657207
0.3549160838
0.3337372269
0.3290567709
0.3135640625
0.2968288517
0.2665912102
0.2790710332
0.2628634437
0.2752836745
0.2892748589
0.3074148149
0.3018655128
0.2971481854
0.302402734
0.2921701739
0.3101777037
0.3256439833
0.2971072356
0.290376127
0.3155066902
0.3193802642
0.3081118881
0.2877169658
0.2948544797
0.3061164271
0.3264715545
0.3133448733
0.3388580688
0.3200973949
0.3260865222
0.3022939093
0.3012641968
0.3185147636
0.3003563151
0.3021514432
0.2972238682
0.2835528558
0.2843497781
0.2710893308
0.2753447233
0.2817181556
0.2875022177
0.302155226
0.3117427356
0.2959169332
0.3132423579
0.2937882034
0.3187188231
0.3074657942
0.3134310574
0.3068442059
0.3004393139
0.3417732848
0.3370571918
0.3138554877
0.3336251673
0.3257231314
0.3332071082
0.2838157084
0.2986870414
0.3002142439
0.3068022621
0.3246551776
0.3458581967
0.344481267
0.3577919295
0.3328249223
0.3165077505
0.3019269885
0.3205282312
0.3214106158
0.3189532658
0.3617916522
0.3549189137
0.3440299444
0.3297986106
0.3327790715
0.321558291
0.3368766604
0.3177621714
0.3097514236
0.3051920887
0.2824808476
0.2966452993
0.2803493066
0.2783873297
0.2854349788
0.3075269723
0.342775581
0.321632103
0.3149528938
0.3419567325
0.3139912942
0.3066090131
0.3036206986
0.3362368452
0.3380780844
0.3337420631
0.3167910933
0.320331904
0.3095295023
0.2971649855
0.2923368873
0.2991224269
0.2719640182
0.2908830698
0.2771248563
0.2964819183
0.3059799665
0.3093802652
0.3174491715
0.3204960669
0.3224588317
0.3139055636
0.2995158663
0.2927635849
0.3244870986
0.320147445
0.314111602
0.3222826597
0.3179207731
0.3258074052
0.3223175059
0.3212993329
0.3204233246
0.3144773174
0.3302430876
0.3319310321
0.3399251383
0.3526376014
0.3301989824
0.2945732874
0.3263862616
0.30508471
0.2941274614
0.289831788
0.2843325834
0.3059841988
0.3003360457
0.3017012173
0.3143228757
0.3231062839
0.3379373987
0.3166769116
0.3187080428
0.3254937742
0.3230189645
0.3248970115
0.2945128888
0.2730086271
0.2899559218
0.3160252292
0.3163671269
0.305243298
0.3044931356
0.304420251
0.3331717809
0.3209481919
0.3247835851
0.2827775458
0.2829177921
0.2948347059
0.295544321
0.3102971677
0.3315339106
0.3304805076
0.3079098294
0.2992638079
0.2915050595
0.2853710246
0.2831796607
0.3082730918
0.3237869403
0.3242483115
0.31879665
0.3176908486
0.3200381352
0.3123120703
0.3179090604
0.3245801292
0.3309122849
0.3161623098
0.3156612761
0.3166303039
0.3101582897
0.3065110901
0.3184025175
0.3277257126
0.3354018225
0.3058324738
0.3198535881
0.3190821622
0.3351366893
0.3498660231
0.3316014111
0.319028966
0.3225759743
0.3215309086
0.321084999
0.3140824503
0.3185231076
0.3094305742
0.3031718583
0.2988077366
0.3089213691
0.3153754858
0.3210792433
0.3152107261
0.3197067893
0.3412532706
0.3273070948
0.3241152636
0.28605289
0.3097707955
0.3225592795
0.2848716694
0.3190150515
0.3192568514
0.3022547629
0.3199369802
0.3371718779
0.3159483624
0.3264873773
0.3550301054
0.3439759378
0.345318929
0.3345377151
0.3317002644
0.3243997088
0.2825919383
0.2910517787
0.3016520385
0.3114867631
0.3110963218
0.3374274857
0.3451883371
0.2947011664
0.2876253754
0.2944756723
0.3176978411
0.3242620028
0.3159676484
0.3319780557
0.3429034456
0.319338576
0.3336063537
0.3105710655
0.3269509485
0.343034924
0.3497875225
0.3346619005
0.3326635093
0.3200065179
0.3067894822
0.2972256049
0.326791701
0.3212779386
0.3134519439
0.3316211326
0.3017433997
0.3089627566
0.3084229496
0.3565725068
0.3565490788
0.3453630929
0.3459502295
0.3627512731
0.3325722399
0.3125909802
0.283896709
0.2990926687
0.319881287
0.28143985
0.3030633403
0.3096034339
0.3009318223
0.2972934972
0.3085574646
0.3156754535
0.3252169653
0.3231659504
0.324728616
0.3185757672
0.3274669541
0.3419032979
0.3448433555
0.3458896177
0.3328847524
0.319304723
0.2915109837
0.2586426861
0.2589466343
0.2801996254
0.2932869214
0.3026270835
0.3214874235
0.3302925612
0.3451437332
0.3563224054
0.3423506367
0.2976765307
0.2855389429
0.2904309032
0.3201440529
0.2999125063
0.2822210504
0.3017268912
0.3116587578
0.3246528301
0.3061857036
0.3007082908
0.3076575823
0.3507339456
0.3320246692
0.3121627475
0.3027197657
0.3208464845
0.3295149165
0.3246569824
0.3028131529
0.2916509217
0.297081866
0.3401111043
0.3187263879
0.3187753059
0.3193700817
0.327976307
0.3328688971
0.3173525819
0.3203030761
0.3270219423
0.3453449269
0.3103252295
0.3186942478
0.3071426188
0.305321923
0.311326575
0.3026444355
0.3234792427
0.3171686089
0.3176210198
0.3243319981
0.3218378742
0.2930038899
0.3233208475
0.3292544791
0.3107872542
0.324300443
0.3101068731
0.3134193462
0.3525431195
0.3564386021
0.3542332224
0.3301466782
0.3070384634
0.3082303659
0.3114897518
0.2985726993
0.3186964047
0.3243834576
0.3298418642
0.316249409
0.3186720721
0.3363323781
0.3362590318
0.32296557
0.3235021508
0.3195754556
0.3227690875
0.3357407639
0.3326650965
0.3427575944
0.28078727
0.2907754226
0.3217694617
0.3348920961
0.3126445232
0.3075207164
0.3031151606
0.3161461662
0.3160502488
0.3173613026
0.31680601
0.3452473868
0.3558241441
0.3511913724
0.3019934396
0.2973146564
0.3000984559
0.3122575959
0.3121791493
0.3028744753
0.3057289799
0.3067071898
0.3016395427
0.3057679467
0.2922349338
0.3091276406
0.2832876069
0.3104670444
0.321005085
0.3398772719
0.3520062021
0.3393098399
0.3658541238
0.3684702535
0.3560657363
0.3486635561
0.3279295115
0.2937427585
0.3026021427
0.3121320103
0.2876324424
0.2598752515
0.2698614862
0.300363262
0.3050906561
0.3162163856
0.3328799846
0.320992853
0.3060783415
0.3087786821
0.3059845196
0.3275781077
0.320141158
0.3029623739
0.2965580152
0.3302083376
0.3099838766
0.3135155312
0.3099982004
0.2772834026
0.3446348184
0.3243407142
0.3251001924
0.3112037263
0.2996549626
0.3092986798
0.29870528
0.3092062936
0.3259191366
0.3254648283
0.3269897119
0.3157744203
0.3308212221
0.3316653731
0.3206408192
0.3008813023
0.3214786771
0.3322556021
0.3679778811
0.3707919474
0.3546503104
0.3246557958
0.3146575823
0.2746716627
0.2758170816
0.2781638498
0.2946758378
0.3164652485
0.3338517274
0.3486093275
0.3326542609
0.3096746745
0.3040545412
0.2803141386
0.3212401036
0.3377711174
0.3433396653
0.3523992146
0.3549425976
0.3433624898
0.2773703955
0.2775169205
0.2952555667
0.3334122103
0.3284573819
0.3342162507
0.3048010391
0.3250870186
0.3181783115
0.3233301839
0.3294605842
0.3151596415
0.2951000267
0.299517081
0.2883678371
0.3002780158
0.3153342045
0.3165579528
0.2933852297
0.2737588774
0.3021854565
0.3016581186
0.3497095688
0.3643449121
0.3587809461
0.3424703131
0.3359738342
0.3501348474
0.3267614488
0.3432253659
0.3274323621
0.335150043
0.3415461074
0.3349549877
0.3337178564
0.2987063865
0.2894970328
0.3161965449
0.30332168
0.2904581355
0.3662204061
0.3739441227
0.348888909
0.326943246
0.3258620578
0.3317889028
0.309966833
0.3138373759
0.3093561736
0.3086037742
0.3217753851
0.3327490357
0.2994632939
0.3282190063
0.3311545261
0.3168134459
0.3259255462
0.2972955201
0.3040732057
0.3361596006
0.3215532423
0.2935652714
0.3117664771
0.3152109513
0.2960410953
0.3031589743
0.3225880633
0.2951436306
0.3042341254
0.3241115834
0.3117073646
0.3031080099
0.3374134743
0.3332213268
0.3131086957
0.3051857577
0.3381185173
0.3443918104
0.3502570785
0.3361073376
0.3373468614
0.3370857329
0.3301697951
0.3166256135
0.3367224759
0.3284501426
0.3244388337
0.3134029
0.3133091534
0.3051957451
0.3283831682
0.3234940455
0.323237865
0.3157212446
0.3339807436
0.3412103946
0.3207559128
0.3395013365
0.3064084873
0.312792218
0.3222636258
0.3064293669
0.2974225644
0.3032629954
0.3091553848
0.3123923814
0.3238792923
0.3300279006
0.3550822546
0.3718305518
0.3244388445
0.3270837029
0.3346357697
0.3217712209
0.3055515785
0.2970485625
0.3387026032
0.3485604365
0.3624503293
0.333857959
0.3464607978
0.3342899865
0.3313039535
0.3193665372
0.3350884746
0.3290190261
0.3452841926
0.3093709354
0.3306280449
0.2894348462
0.2709595432
0.2940176248
0.3099807795
0.3024257388
0.3095385427
0.3478945367
0.2973064177
0.2761527479
0.2869889148
0.3051979581
0.3354947868
0.3620381511
0.3292779998
0.3257879863
0.3036771689
0.309531632
0.3002122157
0.2882573711
0.282873367
0.2836245431
0.300063056
0.3068651963
0.293017705
0.3017983357
0.2779993612
0.2718522517
0.3049950019
0.3143913962
0.3369954335
0.3516895933
0.3201428877
0.2899898263
0.2924765371
0.2923608586
0.2985401325
0.2847263685
0.284206971
0.3404640687
0.3574944939
0.3418408293
0.2968679956
0.2914615168
0.3015775825
0.3057412539
0.3180750446
0.3064637812
0.3239511236
0.3519992427
0.3260283603
0.3290985433
0.37935027
0.3584977915
0.3471353216
0.3230055865
0.3247663959
0.3054018161
0.3331593373
0.3433826028
0.3207206295
0.308539956
0.3262234796
0.3314520857
0.3038961928
0.3158585373
0.3181407079
0.3321283215
0.3426647247
0.3343894514
0.3510035909
0.3426576505
0.3043595192
0.2993836897
0.3385377535
0.3559204945
0.3558705161
0.3424426115
0.3174449007
0.337817427
0.3445538965
0.349556024
0.3521850068
0.3392527253
0.3237224744
0.303914725
0.3217444095
0.3107921014
0.3196221219
0.3022611579
0.3161076435
0.3237996058
0.322667713
0.3161833289
0.2969235226
0.2929204619
0.3157253067
0.314842812
0.3360116255
0.3521203651
0.3523921111
0.3294046416
0.317765509
0.3530303142
0.3241967938
0.3322618647
0.3410784762
0.298933234
0.2957488031
0.2836587376
0.3033708437
0.3184008923
0.3127348279
0.310903374
0.3157032653
0.3086013826
0.318886057
0.3168765925
0.3207386133
0.3296039398
0.3262028983
0.3350037738
0.3367863271
0.3099252854
0.3148190825
0.3202986337
0.326276865
0.3333622497
0.3388161974
0.3615222853
0.3372108864
0.3237190848
0.2979517689
0.3004594698
0.3225734796
0.3366322044
0.3226985243
0.319566526
0.3303884894
0.3367956955
0.3462032873
0.3133626238
0.3281476354
0.3293111473
0.3256303325
0.3179574318
0.3412479463
0.3300316082
0.2923249573
0.3078651622
0.3049775242
0.3246072233
0.3414491359
0.3694634292
0.352703245
0.3231703432
0.3167890881
0.346654373
0.3427059398
0.339061285
0.3189770002
0.3322809491
0.312142211
0.3151421951
0.3226661507
0.3230962642
0.3203811023
0.3472268912
0.3543828232
0.3425396957
0.3279203361
0.3268922795
0.3314730179
0.3220928282
0.322216748
0.3246263521
0.3174641149
0.2950728326
0.3072835637
0.3471730337
0.3322650908
0.3209510929
0.3091281324
0.324569209
0.318798454
0.3131724749
0.3431118898
0.3394742713
0.3232627609
0.2981930581
0.3210686491
0.3396107342
0.2943033349
0.275408703
0.2800152157
0.3015488913
0.3189662885
0.3414622032
0.320966181
0.3217292123
0.3018958654
0.2951863297
0.3088770371
0.3340696829
0.3197612195
0.2915737992
0.2886083084
0.2949735284
0.2844333687
0.3033055588
0.3059774939
0.2960220336
0.295547259
0.294950408
0.3031917908
0.3247441852
0.3102137123
0.3202679504
0.3236432755
0.3326855058
0.3348512867
0.3149674593
0.3081373143
0.3011213479
0.3295923584
0.3048155275
0.2849746007
0.2934211762
0.3140651323
0.3265087661
0.3292831817
0.3162922236
0.3497500755
0.330039715
0.3313293906
0.3143917922
0.3067218624
0.3186045174
0.3417035264
0.3391257854
0.3211981458
0.3286033381
0.3058878248
0.3144462962
0.3120138318
0.3178829771
0.3366676453
0.328614094
0.3330769864
0.3121850407
0.3181435677
0.3260873797
0.3272227213
0.3474574036
0.3360171898
0.3152133178
0.3181930031
0.308923866
0.3252774996
0.3257614645
0.3264301896
0.3255398233
0.3282153992
0.2992954109
0.2813667563
0.2982289519
0.3007733597
0.3243121339
0.3227517604
0.3157289742
0.2994665685
0.3014825777
0.3274749354
0.3142900574
0.325396381
0.3237565581
0.3048209263
0.2855808066
0.2824604327
0.3085841266
0.3114215862
0.334113542
0.3359402215
0.3179872754
0.3119566702
0.3356676605
0.3441696738
0.3183174717
0.2954895705
0.3156966265
0.3349246335
0.3409688991
0.2624451397
0.2916656097
0.29305488
0.3141285887
0.3295820644
0.342645526
0.3534839012
0.3462297545
0.3501838467
0.3589684884
0.3375795788
0.339096035
0.3206434613
0.3312276774
0.3508628644
0.3463584235
0.3431208437
0.3081554752
0.2990334373
0.2768546039
0.3156434907
0.325228732
0.3226766953
0.3210771132
0.2884225402
0.3416823344
0.3395529812
0.33752457
0.3224455471
0.3340647087
0.3489505864
0.3400578011
0.3179397937
0.326399545
0.3264019169
0.3084164724
0.309862952
0.3262970273
0.312063527
0.3250668153
0.3209003713
0.3331352587
0.3479944092
0.3601345845
0.3510307844
0.3222339769
0.2819047835
0.2788375481
0.3097509967
0.332929187
0.3238550265
0.3290368165
0.3541897702
0.3306367256
0.3430128337
0.3199314047
0.3148467095
0.2930142572
0.309061777
0.3302700107
0.3278657441
0.3252831556
0.3189865944
0.3222246437
0.3072580738
0.313126511
0.3122582381
0.3128274639
0.3046770064
0.300992102
0.3066223658
0.3238970124
0.2946156019
0.315309258
0.2946531965
0.3138372459
0.3324121201
0.3231556903
0.3122521454
0.3061358724
0.3032740339
0.3463207529
0.2944043555
0.2996969575
0.3036191648
0.3411892362
0.3245399994
0.3092615109
0.3229747029
0.3007393575
0.3193521678
0.3131172324
0.3299878578
0.324217905
0.3246150986
0.3264901194
0.3102125534
0.3075563195
0.3120383913
0.3090804476
0.2791918688
0.2862405081
0.3113975422
0.3075511135
0.3023692624
0.3035969351
0.36117859
0.3381656299
0.3275779236
0.3486362587
0.3326454474
0.3172250901
0.3106765795
0.3189131368
0.3150373655
0.3214681967
0.3226866025
0.3238364006
0.2921462819
0.2801504693
0.3290381743
0.3046436912
0.3067008384
0.2939758898
0.2873386553
0.3040029643
0.3027007298
0.3164501025
0.3215933481
0.321806254
0.3483761763
0.3635201312
0.3456348628
0.3528729566
0.3519101056
0.3522513541
0.358200552
0.3448049413
0.340985561
0.3439473718
0.3179367125
0.334030389
0.3487310677
0.340760765
0.3322939984
0.3117578395
0.323049051
0.3207533746
0.3533626409
0.3533110079
0.3320128821
0.3323991081
0.3132392174
0.3095540463
0.3156743375
0.3119455287
0.3358219502
0.331786986
0.3235550604
0.3334521502
0.3507154651
0.3487097235
0.3501972895
0.3675662518
0.3731066082
0.3496690372
0.3273034543
0.3189240797
0.3088906939
0.3211569106
0.3296458111
0.332601467
0.3499344888
0.3261350843
0.3297371072
0.3302676273
0.3425076351
0.3238352966
0.3153304721
0.3395074778
0.3364040119
0.3481018945
0.349388831
0.3324179005
0.3509859387
0.3447024041
0.3263879263
0.2914776642
0.3006390005
0.3013406611
0.3032182701
0.299693857
0.2911135986
0.3086843665
0.3053626073
0.3130363966
0.3198144064
0.3417951236
0.3294850021
0.3342634246
0.3232501136
0.3541196124
0.3186804603
0.3163615001
0.3176178193
0.2960876515
0.2759906859
0.284837298
0.3068923387
0.3259136611
0.3590757376
0.3307614961
0.3489781609
0.3187136737
0.3205701709
0.296424138
0.3136599271
0.2921092614
0.2904722256
0.2832765743
0.3041328262
0.3218018953
0.3101494889
0.3285574886
0.3458713619
0.3467608023
0.341951439
0.3421035698
0.3044193739
0.3023418308
0.3035966542
0.3114295158
0.3008047884
0.3210964292
0.3161479257
0.3102064339
0.3345169318
0.3124549616
0.2763931256
0.3002083618
0.3130225212
0.3095617571
0.3162843807
0.3321686544
0.3139205256
0.3080904775
0.2999518937
0.2657080515
0.2701759374
0.2997786682
0.2784516112
0.2796200235
0.2709196047
0.3046237497
0.3130563244
0.3035134996
0.2945607682
0.268275772
0.2843548737
0.2903472074
0.3269636426
0.3158332445
0.3016532117
0.2999352186
0.2879601654
0.300088165
0.3095270422
0.3102045243
0.3262258232
0.3116409591
0.3120522195
0.2979904416
0.3103206006
0.3051067488
0.3233060793
0.3199081058
0.3003816074
0.2928061016
0.3097743188
0.3138315278
0.313482722
0.3428822219
0.3260490174
0.3516439179
0.3567733843
0.3591832305
0.3360453341
0.3322005866
0.3271421089
0.3115295717
0.3157624516
0.3452983455
0.3345521521
0.314338985
0.32208799
0.3207422859
0.3295958706
0.3435787967
0.3430045382
0.3151791611
0.3395248881
0.3427498042
0.3490094347
0.3202377029
0.3067672573
0.3024297854
0.3206518039
0.3022848585
0.2941712259
0.307748469
0.3301673544
0.3403501953
0.3609424238
0.3306989856
0.3316237491
0.3432832704
0.3548563347
0.3307260495
0.3584495374
0.3456842441
0.3212779214
0.3250185347
0.322994217
0.3187898714
0.3079912206
0.3107520211
0.3025447102
0.3157602578
0.3338824111
0.330275944
0.3281755363
0.3394835408
0.3214363913
0.3107211844
0.3146371201
0.3142568975
0.3397387185
0.3823149441
0.3583857196
0.3473494329
0.3053101949
0.2994907563
0.2999887023
0.3156593994
0.3205894354
0.3233780344
0.3360427038
0.3537670355
0.3424013034
0.3259061826
0.3302958674
0.3031571248
0.2924527322
0.3193240895
0.3336891926
0.3358804511
0.3023593297
0.3206465236
0.3335459286
0.3248282761
0.3036714195
0.3034074957
0.3267119382
0.337169065
0.349475388
0.3196164792
0.322407008
0.3236773095
0.3419947135
0.3212540151
0.3198910505
0.3214116072
0.303898258
0.309090069
0.3059556979
0.3157758757
0.3125240946
0.2980841797
0.2987486234
0.2894090843
0.2791073178
0.3104088036
0.3210662333
0.3156264919
0.3226394366
0.3135125297
0.3086200459
0.3243083096
0.2903952369
0.3080292217
0.324591302
0.3165908313
0.3106221038
0.3256671876
0.3411027713
0.3441273724
0.3108148936
0.3123155869
0.2978200552
0.2895365092
0.285170433
0.2571145295
0.2763126897
0.2703037301
0.2890991112
0.3121879925
0.303023542
0.3026870675
0.3099876105
0.3101374653
0.3082110989
0.3034555434
0.333518318
0.323967806
0.3087523712
0.3012810214
0.3153688681
0.3159735186
0.3360473094
0.3196549744
0.3486731574
0.3459255594
0.347637997
0.3511741416
0.3202498406
0.3297977287
0.2938619762
0.2849217472
0.2893810069
0.316166394
0.3122806173
0.3152678534
0.313264523
0.3169013712
0.3362210281
0.3230924338
0.328910367
0.3322783572
0.3323266886
0.3184162935
0.3577200477
0.3373706071
0.3331276259
0.3140132289
0.3079613471
0.3182106944
0.3027734698
0.3168028409
0.3381714693
0.3490390395
0.3216189634
0.3074417214
0.3016920464
0.3239919994
0.3362292858
0.3415931858
0.3467922705
0.3500267054
0.3371903008
0.3240248163
0.3743234933
0.3560134117
0.3493524959
0.3184884047
0.313671997
0.3393085922
0.3486913697
0.3220178875
0.3060283366
0.2903396831
0.2886501323
0.2864473316
0.2976287522
0.3104311131
0.3213259022
0.3040127767
0.3210634437
0.3277153214
0.3528997058
0.3682278931
0.3638373326
0.3431810381
0.3350784248
0.3372136837
0.3376942431
0.321999928
0.3128531783
0.2889213307
0.2546132753
0.2681215837
0.2933989626
0.3058261102
0.3268652734
0.354725694
0.32116935
0.3344541834
0.3297826835
0.3209865207
0.341139553
0.3505131586
0.3302104209
0.3286863545
0.3443551911
0.3383297231
0.3340723801
0.3216615779
0.3187432457
0.3260321767
0.3259064373
0.3208550493
0.3038676147
0.2945635953
0.2860182739
0.2942983733
0.3453913364
0.3446136519
0.338418747
0.3211274608
0.3751048676
0.330010727
0.3618549065
0.3328626123
0.3278717073
0.3118794733
0.2875755611
0.277762164
0.3023737841
0.3236937434
0.3380917508
0.341299922
0.3243616172
0.3520230119
0.3598904875
0.3390777705
0.3106681968
0.3271267134
0.3017164341
0.31855327
0.3277629982
0.3576765904
0.2966228411
0.2941149586
0.2914894343
0.3080254911
0.2833064908
0.2760011029
0.289968867
0.3179652928
0.3278835007
0.3085644465
0.3227842751
0.2874533489
0.266126111
0.281100745
0.2913711512
0.3067430861
0.3105314465
0.3224275456
0.3188365426
0.307429797
0.3234723844
0.3271413084
0.3237661539
0.3305159108
0.3194201652
0.3262666306
0.3335629855
0.31923285
0.3063429202
0.2875803884
0.3006973185
0.3071265028
0.3058285378
0.3075615164
0.3165062221
0.329872437
0.3192296736
0.348183337
0.3323638585
0.315869485
0.3096648293
0.3198991851
0.3069047044
0.2967227975
0.3107535219
0.29164452
0.2996319151
0.3028392568
0.2963851522
0.3282963347
0.3143486025
0.3011154585
0.3058577024
0.2937191132
0.2938457705
0.2984552425
0.3260200018
0.3285393018
0.3338032434
0.339903682
0.315193637
0.2970256398
0.3370235132
0.3513360384
0.3466703602
0.3244073221
0.3258205398
0.3306942785
0.3211491875
0.3127002437
0.3210889872
0.3574681512
0.3690834518
0.3734370411
0.3578487992
0.3351028199
0.3398213191
0.3274014502
0.3092474966
0.3409082436
0.3473940395
0.3459139252
0.3223292718
0.2991764735
0.2872771139
0.2752193695
0.2997306157
0.3147155811
0.3353429619
0.3077329045
0.2973735115
0.3400654451
0.3438815275
0.3267558557
0.3316052172
0.3130012236
0.2865887973
0.3035750566
0.317556529
0.3217157301
0.3364253532
0.3002138291
0.2814052139
0.2971538151
0.2986526638
0.306423628
0.2995479483
0.3180403637
0.3192389661
0.3106010808
0.3151864948
0.304572529
0.3434288698
0.3387875854
0.3061258069
0.3101512964
0.3053048448
0.3062231996
0.2893517502
0.3145988438
0.2911194771
0.3028379679
0.3181959296
0.2984604924
0.3142016695
0.3220883111
0.3263225057
0.3102545321
0.3081203591
0.3300001585
0.3316727546
0.3245398322
0.2959190596
0.296571131
0.3115928729
0.3083588626
0.320345353
0.3032759585
0.305906183
0.2915043039
0.3377167127
0.3331458668
0.2796142656
0.2897747129
0.3229046088
0.322273559
0.3291545064
0.3432880669
0.3345697725
0.3259620162
0.316135373
0.3275414619
0.2929459249
0.3132557307
0.308590528
0.3202289684
0.3028317283
0.3146821855
0.3247780093
0.345074799
0.3150926441
0.3012457194
0.3167640266
0.3345609459
0.3258980734
0.3257457824
0.3307423186
0.317583642
0.3196381867
0.3329767269
0.3386366717
0.3189438248
0.3566663527
0.3281800451
0.3257511824
0.344430485
0.3169050371
0.2912416694
0.3139277829
0.3297895044
0.294262127
0.3111617439
0.3013955655
0.3192265309
0.3174439281
0.3325050477
0.3304147513
0.3236319755
0.338737736
0.3163408712
0.3153400307
0.3281593677
0.3255279587
0.3397216401
0.3317559783
0.3232693538
0.3190894888
0.3195503662
0.3172893856
0.3073632174
0.3098658068
0.3150781997
0.3413490214
0.3137237119
0.3177320375
0.3262086529
0.3397625628
0.3471603832
0.3332989788
0.3457218841
0.3303815747
0.3005060797
0.3179764792
0.317189248
0.3206637829
0.328433008
0.3297991336
0.3350302023
0.3177007195
0.3363821868
0.3399848637
0.31865189
0.2975173261
0.3111196458
0.343696161
0.3502416212
0.3643938319
0.3425069922
0.3086856211
0.3184732607
0.3462160548
0.355376844
0.3402867397
0.3247775663
0.3177209959
0.3167319073
0.3281386242
0.3311317964
0.3177656717
0.3164983796
0.3199315056
0.3174397629
0.3355384012
0.3253151433
0.3281944681
0.304326096
0.3066743039
0.3319980602
0.3528724033
0.3288161857
0.3152234948
0.2945919028
0.3005505558
0.2970412349
0.3092749197
0.3437501321
0.3300731348
0.3328377942
0.3281169103
0.3304778174
0.309815335
0.3277074658
0.326106647
0.3311832359
0.3487596798
0.3365705173
0.3103023729
0.326528056
0.3210399192
0.3077534858
0.3030781506
0.3398109913
0.3452097061
0.3183899392
0.3398456292
0.3196513558
0.2866164674
0.2955518034
0.2934391758
0.2842182603
0.3116280402
0.3077954792
0.3146708698
0.334533603
0.3596457497
0.3557333556
0.3397912665
0.3059335858
0.3188327718
0.3272894523
0.3523463713
0.3498623386
0.3439228521
0.3325696667
0.3114429869
0.3162858456
0.3470128826
0.3511395078
0.3486605589
0.31891176
0.3056214589
0.2994748703
0.2852107596
0.2818718374
0.3106320987
0.3295945051
0.3148725377
0.2959815765
0.2886668425
0.3198987235
0.3271185752
0.3109815322
0.309812966
0.3077432916
0.3156158738
0.3255640766
0.3230996848
0.3485336637
0.3406183807
0.3057171878
0.3095263822
0.2951911174
0.3056338308
0.3202104349
0.3180752527
0.3072312605
0.3094959773
0.3217355307
0.3043376942
0.3244580319
0.3052644494
0.3234525828
0.3264653945
0.3264867378
0.2976136821
0.307619808
0.3333627843
0.317465766
0.2925462697
0.291019194
0.3226915883
0.2988381259
0.3009179101
0.3011829794
0.3194822418
0.3197016466
0.3111933822
0.3250942851
0.3368909027
0.3263097183
0.3118385482
0.3231298578
0.3590264247
0.3810712977
0.3596672235
0.3145025146
0.3152479781
0.3205369177
0.3107523678
0.3181152449
0.3033139808
0.286646018
0.281635881
0.2661014747
0.2725407435
0.317604938
0.3458727668
0.3257028461
0.2950732347
0.2866252185
0.3132123551
0.3026163128
0.2938594254
0.3282667181
0.3340565399
0.3387067568
0.3157609436
0.2965899285
0.2977200233
0.3081402945
0.3153453724
0.3307600168
0.3276347873
0.325210958
0.3368743993
0.3345732169
0.3176337236
0.3335321716
0.3400047537
0.3669733345
0.3533435187
0.3304499307
0.295881161
0.2736518569
0.2676187618
0.2664193991
0.3147308807
0.3325530561
0.348413524
0.3228123601
0.318783303
0.3209485607
0.3117674057
0.3129502187
0.3018191058
0.3181779646
0.3311560967
0.2954171416
0.2776517868
0.2958774216
0.2988867184
0.3037619519
0.2975949277
0.3133535794
0.3314482389
0.3344039814
0.3219116934
0.3120522704
0.3180451709
0.3261253381
0.2741888836
0.292852993
0.2923688783
0.3372659586
0.3388814683
0.3239192177
0.3406082859
0.3323779525
0.3138742765
0.3220440734
0.3219287752
0.3222352422
0.3175812977
0.3039293119
0.3017337295
0.2887672729
0.2911024939
0.319087058
0.3149766213
0.2921652429
0.3083524251
0.3240778037
0.3064915467
0.2899192536
0.2948616419
0.3072462029
0.3288258368
0.3205957379
0.3074906986
0.3079451558
0.3025113981
0.3044823477
0.3153164217
0.33914321
0.3325831396
0.3444229592
0.3384254028
0.326144663
0.3241530167
0.3353108722
0.3672674044
0.3598518004
0.3447860412
0.3260121696
0.290616707
0.2985326654
0.3010773506
0.2921146171
0.2917265995
0.3001523649
0.308870554
0.2980420013
0.3121868274
0.3021698066
0.2936680952
0.2983106704
0.30565848
0.3361323205
0.3328338995
0.3410751397
0.3159395988
0.3374735749
0.3305470618
0.3557689456
0.3272379766
0.3162819761
0.3045645121
0.2869640454
0.2812202588
0.2736204858
0.2891800185
0.3160279305
0.3333520755
0.3249274263
0.3369775588
0.3216494799
0.3124533093
0.3459790772
0.340999595
0.3279721518
0.3711630483
0.3567724446
0.3490076554
0.3298257494
0.3235052098
0.3137554586
0.3237471224
0.3059774674
0.3163697981
0.3381959119
0.3389136913
0.3231731198
0.2981942218
0.3083012906
0.3249451872
0.3283898013
0.3409517842
0.3171563113
0.3373753544
0.3452635678
0.3040782598
0.3258562858
0.3204884233
0.3171945258
0.3212423262
0.3064644063
0.3167225688
0.3215276668
0.3149933271
0.2937489529
0.297067522
0.3158449463
0.3412985453
0.315845701
0.2960486456
0.3023915175
0.3003709564
0.3145639439
0.3104236802
0.3335159976
0.3227679356
0.3366626314
0.3307980522
0.3144523984
0.3401719181
0.3485069172
0.32799109
0.3403610573
0.334281985
0.3128825666
0.3118958532
0.2949705423
0.3163994082
0.3377435606
0.3451414527
0.3368746337
0.3024697948
0.3122338626
0.3096529526
0.3108608904
0.3173760588