/*--------------------------------*- C++ -*----------------------------------*\
| =========                 |                                                 |
| \\      /  F ield         | OpenFOAM: The Open Source CFD Toolbox           |
|  \\    /   O peration     | Version:  2.4.0-MNF                             |
|   \\  /    A nd           | Web:      www.OpenFOAM.org                      |
|    \\/     M anipulation  |                                                 |
\*---------------------------------------------------------------------------*/
FoamFile
{
    version     2.0;
    format      ascii;
    class       volScalarField;
    location    "0.0007";
    object      p_O2;
}
// * * * * * * * * * * * * * * * * * * * * * * * * * * * * * * * * * * * * * //

dimensions      [1 -1 -2 0 0 0 0];

internalField   nonuniform List<scalar> 
5120
(
0.08464223756
0.08542888958
0.07880633554
0.08089095354
0.09727455812
0.09626662975
0.1005521999
0.09937219545
0.1074591196
0.1055304818
0.09727245223
0.08880288756
0.0935759011
0.09078965943
0.09384521525
0.09458245751
0.101091997
0.08356529883
0.08085617257
0.08899759925
0.110648843
0.10920758
0.1100957503
0.1024816112
0.09881014696
0.1022847206
0.1060760281
0.1050300356
0.09138407616
0.1088971986
0.1112453378
0.1026011311
0.09565459506
0.0905354636
0.09664194508
0.09057624368
0.101915653
0.1061085007
0.09451791789
0.09180479952
0.08169611774
0.08849910844
0.09100559085
0.09114915704
0.1041199926
0.08629616829
0.08304605626
0.07883651441
0.07997237367
0.09701791631
0.09171633406
0.0931528062
0.09151882863
0.08109567127
0.09800023893
0.09256807343
0.09553014004
0.08898635794
0.08809434124
0.08437108011
0.09486421115
0.09894439123
0.09749772809
0.08349078888
0.08159433239
0.08442533846
0.08313355683
0.09076369839
0.1064884658
0.1085060004
0.1095180974
0.1014563427
0.1078709958
0.1044778158
0.1030023894
0.09387682076
0.08925216865
0.09344729028
0.08643066315
0.09114817126
0.0740076989
0.07115832956
0.08234841478
0.09467679192
0.1004470896
0.09892628822
0.1059854642
0.1070306523
0.09950974381
0.1076977134
0.1052567269
0.09774095194
0.09113553279
0.08628866789
0.0870122232
0.09298669407
0.08871199212
0.09436364755
0.1058431338
0.08936450114
0.09869854877
0.09432492585
0.08956089181
0.08766989121
0.09677669498
0.1083908166
0.1053479417
0.108313586
0.1072559772
0.09466145874
0.0864566753
0.1060745023
0.1006610898
0.1148625934
0.1252635997
0.1039521235
0.09878098261
0.08893030026
0.09653350048
0.1021402762
0.1043661669
0.1067138413
0.1057056442
0.1089296555
0.09440121701
0.07720721829
0.0791170678
0.08394138362
0.09935108908
0.1118565654
0.1010409327
0.09454777326
0.1034191439
0.08265629913
0.0727049324
0.0921620704
0.101553537
0.1056057386
0.1015791624
0.1014658932
0.100279752
0.110957781
0.1058773651
0.1021961705
0.1063177445
0.1135381711
0.1156983439
0.1165082201
0.1246101073
0.1082775589
0.1145786561
0.1061728684
0.09787731954
0.1018090821
0.1093639963
0.09393267103
0.08212295007
0.08559884167
0.08571966429
0.09748330536
0.09557227417
0.09403349279
0.08683330565
0.07977125995
0.07192811031
0.07759597249
0.09286071686
0.1193198079
0.1223008485
0.1132591842
0.1066446648
0.105515873
0.09547340933
0.08286365533
0.08415509123
0.1059030305
0.117251399
0.09563932325
0.09004322566
0.09589276852
0.08281057714
0.07291562688
0.07175967459
0.08632281989
0.09359443787
0.09967011819
0.1061563677
0.1003603921
0.08864012646
0.09373414871
0.09288501304
0.08802453402
0.09251823682
0.1082198616
0.108657824
0.1037695315
0.09789792576
0.1032621577
0.09939715709
0.0934502057
0.1121230603
0.1038318562
0.08968429745
0.08354077312
0.09047659052
0.1067201282
0.1091092301
0.1020177646
0.08852639117
0.07524119287
0.07577102087
0.1049153322
0.1123199567
0.09871860023
0.09770903546
0.1016775422
0.1025130195
0.09425818569
0.07969060848
0.09446882935
0.09303919798
0.09114089441
0.09804354797
0.1035992046
0.09798799828
0.08009930347
0.07668869996
0.08552446682
0.0800403561
0.09197556325
0.09560492459
0.08528274307
0.07064496541
0.07715544227
0.07582003199
0.08539518439
0.08450826427
0.08060296232
0.07622542892
0.08417827972
0.09623351454
0.09432804183
0.08264211064
0.08491610884
0.08789868923
0.09702895864
0.09050886558
0.09330064019
0.09821024706
0.07506479979
0.07183016136
0.08100504752
0.09162988707
0.09087453834
0.09112684253
0.08691927123
0.08333958599
0.08411284705
0.087259577
0.09175464507
0.07943775822
0.09104329556
0.09586045623
0.07843892834
0.08530457725
0.08291347252
0.09450205181
0.1027884362
0.09734370164
0.09411747241
0.08925103612
0.09779370507
0.1011020184
0.1013061952
0.1030980693
0.09513553252
0.09851801483
0.08825175303
0.09058092211
0.08744973691
0.08879375291
0.08157618272
0.08718131364
0.09358366923
0.09372303905
0.101960237
0.08781765283
0.08680927763
0.09207265826
0.08589414574
0.09448516343
0.1069162516
0.1044314697
0.08475858395
0.07299570661
0.08609400257
0.07944427825
0.0720973164
0.08348148634
0.09128557883
0.08751991483
0.1023626105
0.1044324166
0.09994761646
0.09138885289
0.09299430683
0.1100101359
0.1182577912
0.1149635651
0.1051092221
0.09195944676
0.09142157792
0.0861312671
0.08454792865
0.09055197662
0.08932955681
0.09175274598
0.09232557869
0.08756218386
0.08135567467
0.08398392865
0.09885657653
0.1021601559
0.09452815505
0.1005397552
0.09419368326
0.09681616938
0.09984962166
0.08097114658
0.09046682043
0.09972270431
0.09977496292
0.09076676508
0.09068918477
0.09017918407
0.0914775047
0.08742420951
0.08855995975
0.0852093356
0.080018903
0.1091645169
0.1109568496
0.1028761449
0.09825576382
0.08272394782
0.0861748649
0.09504269943
0.09705139386
0.09485354133
0.080720973
0.08219453065
0.08124569815
0.08548919045
0.09977334679
0.0925491274
0.07988566072
0.09729027976
0.1009066006
0.1070106602
0.09954937367
0.09264431981
0.08414783055
0.08284721489
0.07756240661
0.08889717806
0.09337266812
0.09226316869
0.09724196488
0.1008320442
0.0898961306
0.0806452147
0.08509994641
0.08470542773
0.08001515849
0.07561769054
0.09346581722
0.09380294359
0.09068371805
0.08271897151
0.0779914935
0.1016923468
0.08581012364
0.07797760576
0.090623783
0.06661668131
0.08255177061
0.0832270087
0.07296834001
0.07941107012
0.07847789662
0.07506826447
0.0796772635
0.0833566107
0.07892359986
0.08614643963
0.09804437296
0.1055551175
0.1042191254
0.102054444
0.1007794579
0.1024274801
0.1083440503
0.1160108413
0.1004423905
0.1097588757
0.09736094785
0.09542050299
0.09546503087
0.09855606041
0.08742963454
0.09508730121
0.08083371665
0.08753488833
0.08362536596
0.08710105848
0.09190040898
0.08711070939
0.08944819719
0.09337724846
0.0975328806
0.09605441925
0.09453341565
0.094757982
0.08885637018
0.0961681343
0.09497628523
0.1054555549
0.1040911888
0.1014545372
0.113433053
0.1211552976
0.1287712255
0.1074087645
0.1144095501
0.09999938484
0.1060597221
0.0895081471
0.08550571308
0.07963468302
0.08036767055
0.09807631412
0.09567556286
0.1014267128
0.08873280699
0.08200643496
0.08867264507
0.09564809691
0.09733904033
0.09046854273
0.08637442502
0.0883545418
0.07853123359
0.08001259965
0.1109079504
0.1287981929
0.1201860534
0.1181234305
0.09779398936
0.1021253413
0.1009114529
0.08924346494
0.08810399878
0.09087268733
0.09115806646
0.09566858422
0.07791165886
0.08076736491
0.07288341374
0.0743243556
0.08988097952
0.1021404062
0.1258697754
0.1358345426
0.1143188836
0.09391766627
0.09123770637
0.09277918785
0.08850975672
0.08903621494
0.09226399008
0.07887416595
0.08263497401
0.08675599005
0.09696936647
0.1068132041
0.1110955075
0.09621051326
0.09547310831
0.09784756228
0.08538984681
0.08079895379
0.06872821208
0.07664383054
0.08092960082
0.09858207467
0.09656193988
0.1017200333
0.09482994021
0.09898293708
0.08054390261
0.09588129231
0.09578559917
0.09922477701
0.1057050296
0.09728542959
0.1053726998
0.112240669
0.1018886317
0.09965262646
0.1061852478
0.1052394942
0.1045185996
0.09512177031
0.09079607889
0.1015849202
0.07665648862
0.09621628963
0.09720846801
0.1017261783
0.1023834591
0.08439319444
0.07677598756
0.0880797424
0.09554508573
0.1031563992
0.08631623043
0.07392913955
0.08178467186
0.09534654008
0.0979556801
0.0929624297
0.07315434118
0.08741031774
0.09874921626
0.0991551763
0.1013497894
0.09318554854
0.07870160486
0.08433075281
0.09325212822
0.06852194044
0.07777471275
0.07568380233
0.08111954484
0.0721441812
0.08902801051
0.09528534253
0.0825834208
0.06197011807
0.07533808456
0.09570558358
0.1055213705
0.09121151545
0.09561458826
0.07807681499
0.07862475263
0.07900593971
0.07829552549
0.09069180737
0.08014949356
0.0915470356
0.08677849269
0.09750471787
0.1061340109
0.1042393635
0.1034402911
0.101428285
0.08455713567
0.09539845148
0.1040116943
0.1086507952
0.1007889031
0.09750769078
0.0857922119
0.09521170583
0.08726249455
0.09050348973
0.0840508167
0.08637118599
0.0967000207
0.09250650213
0.08394753842
0.09700184061
0.1087148881
0.1016737878
0.09766497699
0.1103713315
0.1133871355
0.1037816666
0.1076663658
0.1059208191
0.09988834939
0.09827237452
0.1075544077
0.09740750472
0.09696461629
0.09594305112
0.09147712118
0.08999974539
0.0818348429
0.08917015621
0.1116256166
0.1074891638
0.1138136108
0.09160688662
0.09804504208
0.09861526457
0.09465182897
0.1003234273
0.09498976426
0.08299704576
0.08565375429
0.1124534259
0.09854998396
0.08508555019
0.06837292985
0.06844900505
0.08791389669
0.08237241749
0.09134195277
0.0966296089
0.08928267527
0.09054825761
0.09223370148
0.08781149444
0.09434125377
0.09988247803
0.1019727048
0.09635128212
0.09126207416
0.09102020186
0.08899064132
0.08327200374
0.09444426487
0.09757994338
0.1031444657
0.09538004758
0.08818421182
0.09369131056
0.09092941436
0.09895323461
0.09943315653
0.09410793338
0.08842802422
0.1027643354
0.1003780787
0.09447012493
0.09199387997
0.1067825334
0.1110412157
0.1145082875
0.0960194017
0.09406894075
0.1010655325
0.08543541242
0.08836505805
0.08444412835
0.08365639679
0.09248692194
0.09508969397
0.07918343608
0.07923598681
0.08234350494
0.0984173419
0.11351131
0.1096487097
0.1031947604
0.09340141826
0.08559342889
0.08084480485
0.08313009443
0.09528019823
0.1011585151
0.1112167902
0.1329072195
0.133012019
0.1165245787
0.09603648543
0.09931251674
0.1008813835
0.1083708365
0.1097798946
0.1212526903
0.1139378957
0.1146446542
0.1068072468
0.1047531089
0.09929921093
0.1049569058
0.08620340989
0.08457783178
0.07457112026
0.07420457588
0.0847941326
0.09417098001
0.08215837521
0.08374455442
0.1016038919
0.1120011677
0.1128642001
0.1114424405
0.119775983
0.1012072984
0.09760586104
0.1129281681
0.1042006742
0.09072370191
0.09786892521
0.08967884137
0.09928738835
0.09137134196
0.08974966965
0.1019852218
0.09148808136
0.0876208421
0.08113193563
0.08542088769
0.09761826124
0.1049311958
0.1132695774
0.09051656761
0.08522616321
0.08572719422
0.08188877602
0.08296974299
0.09973004413
0.1063447177
0.08908249134
0.08041406869
0.08208097106
0.08163992947
0.09430440257
0.08371985347
0.08452722187
0.08230771219
0.07148186334
0.08573185872
0.0920132499
0.08602770103
0.09305393152
0.1012451156
0.1079901993
0.1016319439
0.0964980261
0.09669597774
0.09395700739
0.09076474402
0.1010337007
0.1057537024
0.09741878075
0.09764971765
0.0976045883
0.09971383393
0.08551329238
0.08864642852
0.09041240564
0.0801396776
0.09098995377
0.09942532004
0.0952463253
0.07933698918
0.07887533739
0.08565535954
0.09716874173
0.09558184332
0.09040799501
0.06847140314
0.0873029211
0.08497360176
0.07406106757
0.07901932488
0.09943521144
0.1017996169
0.1045321494
0.09371463296
0.09839594394
0.09868627661
0.1112422361
0.1001024368
0.09102611632
0.07984255686
0.07687466864
0.07109934506
0.08027128556
0.08391026029
0.07678573932
0.07698260885
0.07808317882
0.07942489176
0.09377695753
0.09535398602
0.08657144078
0.1010009925
0.1069002834
0.08816237318
0.08691755734
0.09544053292
0.09529281051
0.09129957379
0.08002615359
0.1021423752
0.09120540512
0.09093838966
0.0971115767
0.08626863789
0.09887905177
0.08806669559
0.09723348008
0.07619869421
0.07684014209
0.08877760725
0.09904285827
0.07393783661
0.09520487646
0.1056742463
0.09644565522
0.07425420609
0.07190850146
0.08435311195
0.08798965069
0.1000059052
0.1068561843
0.1064386683
0.1029445651
0.1025989266
0.08697057996
0.08617425398
0.08202349559
0.0886642393
0.08337422496
0.07827051534
0.09529213677
0.09958739427
0.09624949133
0.09526434981
0.1030957593
0.09942120218
0.1058312417
0.1016997446
0.1005706171
0.09034892678
0.09483033434
0.1103714798
0.09777527577
0.08647903152
0.08833070439
0.08257696913
0.08093053358
0.0860800415
0.0830203415
0.0827046085
0.08309279721
0.08663357684
0.08660032686
0.08507355584
0.08468458511
0.07343242228
0.07760255486
0.08059047145
0.09066967972
0.1168123361
0.1110850284
0.09811133408
0.09469939831
0.1038081187
0.1000997396
0.1022593549
0.09711396571
0.08377776323
0.08214973602
0.09479193302
0.09086913774
0.07658154764
0.08534571421
0.08647634681
0.08757060808
0.08930855984
0.08535304508
0.08152389611
0.09339498751
0.09685932273
0.1016008806
0.08685863432
0.07416764596
0.09881645587
0.1013827473
0.09291246584
0.1049950723
0.09566004721
0.1021688275
0.09603314647
0.07984811444
0.08647377517
0.07651668837
0.06580733992
0.06994052375
0.08875363333
0.1099498294
0.1067240534
0.09322166826
0.09687849591
0.08898679148
0.09308901196
0.08637619094
0.08177265683
0.07744633206
0.06870508479
0.07753180596
0.08274789673
0.09515590656
0.1045144458
0.112466267
0.1054175175
0.1012324015
0.1018308486
0.1048518153
0.09751060254
0.09818686524
0.1016159854
0.09294469562
0.09495939041
0.08874032342
0.0988757994
0.09973953253
0.08889152927
0.08345050921
0.08973776461
0.08935364676
0.0851656113
0.09614143428
0.09763502284
0.0851303112
0.07841099094
0.07932425789
0.08590001615
0.08721559475
0.09793512722
0.09845605859
0.09355014973
0.1030653877
0.08048991203
0.09191005653
0.1114946184
0.1078652797
0.09602063929
0.1030460911
0.1012142602
0.08917133798
0.08594397277
0.09118422884
0.09562624303
0.09757121505
0.09086919338
0.07578063634
0.08251277899
0.09640769825
0.09338745741
0.09601724345
0.1004220134
0.08890055739
0.09964400865
0.07851985953
0.08513843786
0.09264085042
0.09148450872
0.09720056649
0.09944920916
0.105204381
0.1016896336
0.09970814177
0.1145371266
0.1247463142
0.1170043248
0.1049933571
0.08696735163
0.08890014589
0.0749331725
0.08007657295
0.07749165199
0.09899280743
0.07692838998
0.08965567322
0.09781140664
0.09909697354
0.08334521249
0.08935459516
0.09786882689
0.09956458415
0.1040054777
0.1199746736
0.1085560545
0.102993394
0.1036718951
0.1074004515
0.1040849838
0.09871667349
0.09161806849
0.09926384196
0.09775667603
0.08206906522
0.09526290905
0.08930260274
0.09174328728
0.09016144713
0.09056102925
0.08669259625
0.09299786555
0.09193226797
0.09785554665
0.1018171801
0.1109461249
0.1016501641
0.09284485778
0.09222244352
0.09201994527
0.0953011139
0.101410785
0.08700252288
0.08914542696
0.07774397344
0.07425914053
0.07991136566
0.08100367575
0.08996632541
0.08484251221
0.09124055937
0.09863903464
0.1064536824
0.1001125122
0.09730952155
0.09653082581
0.1067362813
0.1012032926
0.09072362763
0.09953486757
0.09991412101
0.09845258427
0.0921627697
0.08642068656
0.08352957057
0.07350685226
0.07569409208
0.08691116202
0.110093832
0.1172161415
0.1050021838
0.0968136889
0.09763297271
0.09865299921
0.1078846385
0.0953928149
0.06925242664
0.07293876509
0.08967160569
0.08271123861
0.07799706688
0.07435852556
0.07556179958
0.0765316346
0.06873177004
0.09623434455
0.1079545674
0.09579243782
0.09184592205
0.09406139378
0.08776767833
0.09847168931
0.08919602936
0.09651581344
0.1020155872
0.09642045115
0.1038491466
0.1076208698
0.09480908786
0.07823794997
0.08845085784
0.09110837421
0.1035519978
0.09700418748
0.09196468845
0.1129731633
0.1098776606
0.1208553578
0.106524233
0.09950328204
0.1196604832
0.118853539
0.1082869242
0.1018062379
0.1050458066
0.1166351426
0.1093039427
0.09983120081
0.0935453816
0.1102270236
0.1063964706
0.1038050246
0.09415265506
0.08473974828
0.109495759
0.0779931537
0.07952972469
0.0750292375
0.06816894952
0.08153440276
0.0825463876
0.09570128027
0.1065609592
0.106876275
0.09718985183
0.09738236855
0.09159033874
0.08551311557
0.07130595799
0.08416877182
0.08669482735
0.08438067507
0.09045571312
0.09578230135
0.08289170433
0.09048617883
0.08011853675
0.07720111925
0.07556761529
0.08439129658
0.07911528943
0.08024787686
0.09868072286
0.09763499215
0.09646205062
0.1022517553
0.1055459889
0.09486004034
0.07712353894
0.07501407695
0.08766526006
0.1033613996
0.09969745171
0.102409933
0.1012152173
0.1156837257
0.1118132829
0.09616114289
0.08844173954
0.07953670378
0.07811979666
0.07301246895
0.08055294329
0.0890963242
0.09435846976
0.09497832688
0.09910778357
0.104947735
0.1114226774
0.1056440033
0.1063822637
0.1105865496
0.1127527328
0.1030122439
0.1109676705
0.06893414348
0.06910343518
0.07156727501
0.07206948766
0.06479164113
0.0637732674
0.06979407587
0.06996767534
0.06964751512
0.0789275112
0.08058257065
0.08529809577
0.09098026771
0.08691862709
0.09660955729
0.1043611697
0.1071691939
0.09429817062
0.08794745482
0.08114144062
0.08472968809
0.07973725903
0.07631373535
0.08381529806
0.08609488988
0.07863628675
0.08386205384
0.08052587349
0.0769436868
0.06944860938
0.0763823102
0.06441602362
0.07921014965
0.08871502525
0.08338498751
0.07530895079
0.09101285367
0.09587207285
0.1003970742
0.09891256632
0.1026021229
0.1023406639
0.1014375296
0.1099422846
0.09573026818
0.1027856625
0.1110859614
0.09873947588
0.09423866239
0.08694066922
0.07874191233
0.08228255189
0.07894977948
0.06678538222
0.08105249276
0.07741069655
0.0863573493
0.09164325133
0.1023883018
0.09990763452
0.1081660056
0.08899446836
0.08231302675
0.06819927396
0.0860085119
0.08848305305
0.08163593385
0.07977290297
0.07458736626
0.08536308168
0.08700424445
0.08687421491
0.09869279851
0.1039407667
0.1059052216
0.08978696577
0.100921963
0.09859078445
0.0964420198
0.1189643521
0.07950831109
0.08010542629
0.08434291441
0.07904667624
0.07714371413
0.08279989665
0.08824993411
0.1029412935
0.09497333508
0.08770169549
0.08663433037
0.09519372635
0.08718768769
0.07788173545
0.08559451295
0.08759414905
0.09046746592
0.08898743877
0.08181356749
0.07351665891
0.08818997892
0.09089703732
0.09329329072
0.07127403205
0.08416419225
0.09113021704
0.08523106951
0.09293875049
0.100402159
0.09505739116
0.08021421014
0.0735993986
0.07053813321
0.07264191861
0.07030061899
0.07552771939
0.09096335956
0.1042879855
0.1010784523
0.08988176383
0.08308387034
0.09716539635
0.09652501262
0.1037810596
0.11167585
0.1128795931
0.1006648179
0.08390050108
0.08279673759
0.08502368953
0.09229146252
0.09201128562
0.09061481242
0.1043851134
0.08255665283
0.08259925045
0.082002249
0.08965496818
0.09421419823
0.08580530931
0.09536152525
0.07691300879
0.07563358083
0.08472900068
0.09175432632
0.08642740831
0.081123475
0.09240214306
0.07241604708
0.0727029288
0.09609047138
0.1017741688
0.09288836994
0.09239953938
0.09539759653
0.08804035575
0.08826177294
0.08542462392
0.09229350643
0.09860834707
0.08757012502
0.1072074381
0.1042709813
0.08804600003
0.06644569992
0.07039399462
0.0733556172
0.08265547483
0.1017917437
0.107133511
0.1017649174
0.08778052489
0.08430116281
0.08616576488
0.08834319611
0.09408693626
0.09367396892
0.08931082344
0.08552191719
0.08748687155
0.09491263245
0.08755036158
0.1047135806
0.1063746853
0.1057508884
0.1064086305
0.09227821292
0.08424827571
0.08755836679
0.07613745229
0.07694683684
0.0854513998
0.09885503958
0.1069072492
0.1201325476
0.1147692207
0.1085542731
0.1085979288
0.103507132
0.0929122906
0.1090135346
0.09752374894
0.07740246205
0.07904409051
0.0888044834
0.108399922
0.1002955709
0.1103729725
0.09685994466
0.09346984421
0.09695718103
0.08999212284
0.09024774805
0.07310442093
0.0735330539
0.06994012754
0.07562535855
0.08724470105
0.09228119059
0.1019241356
0.08487283167
0.07423743423
0.07929700352
0.08072387559
0.08055525243
0.07139878832
0.0868574094
0.09245966053
0.09501140483
0.08939390712
0.1039143199
0.1018664131
0.09211044573
0.09740334291
0.1027977338
0.08971653964
0.08862694355
0.09165436629
0.09054265203
0.09373481494
0.0726130241
0.08860488898
0.09686973275
0.1104701147
0.1186044045
0.1142637961
0.112475569
0.1093567511
0.1041197806
0.09669289345
0.09001993458
0.08100811376
0.09097998878
0.09060632835
0.08924104311
0.09467330575
0.09005298156
0.07569240875
0.08397791478
0.07899644942
0.09582285056
0.08635668212
0.09404113892
0.09825924996
0.1039862083
0.09520233562
0.09134279228
0.09029777333
0.09434126807
0.088996112
0.08066220081
0.07597247079
0.08087359185
0.09580479685
0.1030528807
0.08724387591
0.08317416363
0.08561519943
0.08704296089
0.08906450614
0.08556984965
0.09988475755
0.1015052587
0.09838974527
0.08622554699
0.09806822053
0.1030648497
0.08874472161
0.07972460241
0.0834718947
0.08512874734
0.08128450825
0.0778944673
0.08000398786
0.07563979251
0.08073581067
0.0874568492
0.08657999523
0.08965404926
0.0887165718
0.09204399461
0.0811541121
0.08792118726
0.09610419491
0.08816553038
0.08263140211
0.08465789598
0.08564742904
0.07631346164
0.07546989409
0.07751840059
0.08218304031
0.09871428816
0.09598287088
0.09454413668
0.08871049258
0.09789088843
0.09273907893
0.08983665614
0.09709509374
0.07968767543
0.07185797883
0.07714857718
0.08636051374
0.08342308742
0.09489226729
0.08626615175
0.07873650514
0.09359936656
0.08796187299
0.07369471046
0.0804589842
0.07257646707
0.08303123452
0.0756174755
0.08388683598
0.08145253737
0.086066147
0.09598265448
0.08160439061
0.0719037335
0.08807396419
0.08569982578
0.08019054222
0.07508266422
0.0714583349
0.08985901448
0.0913843547
0.08521070397
0.09809113708
0.09071430042
0.08134310539
0.07764872914
0.08043685165
0.08595859397
0.08462036641
0.08756433904
0.08357081086
0.07672423441
0.07392177141
0.09842251351
0.1042099618
0.1105572723
0.1094081982
0.1008732985
0.09821903713
0.09976285551
0.1079776198
0.09956395206
0.09025456617
0.1085067434
0.1092858403
0.1034901415
0.1029511995
0.09475625786
0.09437824592
0.07898510692
0.08356477419
0.08199087449
0.07824062386
0.1235067692
0.1130878009
0.100625745
0.09888451795
0.1137711987
0.105946493
0.08364686584
0.08562599773
0.0847240511
0.08031877783
0.08262008612
0.0813895633
0.09464534769
0.0989622164
0.08840082006
0.1037422474
0.1098776242
0.1064928673
0.108338405
0.1178254269
0.1073219191
0.1189478495
0.1232828427
0.1235484618
0.1029373941
0.09586926245
0.1117798919
0.1136130344
0.09134042775
0.09050157179
0.09155720101
0.09233404413
0.0937535958
0.1022695286
0.09426725104
0.08818288504
0.08608564335
0.1047498352
0.1035827387
0.1029928384
0.1090847067
0.1054997229
0.09562695615
0.08724382725
0.07401894838
0.07815230342
0.09095259231
0.08260030045
0.09993963601
0.09969231616
0.08131054695
0.0670686346
0.06395991819
0.07225541913
0.08416507522
0.09889414391
0.09897095914
0.0848226071
0.07202380896
0.08642235794
0.0953833944
0.1107264805
0.1140626222
0.1008209783
0.1013955381
0.1004185086
0.09563440731
0.1017983884
0.08548956588
0.0827186321
0.09519624772
0.0893944243
0.08638497445
0.09589502589
0.1184465211
0.1060267225
0.105620399
0.09238782969
0.08694643651
0.09428921856
0.09546208806
0.07957082289
0.06377621495
0.0740355564
0.09171938978
0.1028539177
0.09886009049
0.08398832129
0.088166428
0.08201086915
0.09299792811
0.08562770771
0.08464903309
0.08117348045
0.0807906073
0.07449649229
0.08625419266
0.1032062311
0.1151176862
0.1088660936
0.07723514869
0.07735507965
0.08202254008
0.08588072027
0.08787140451
0.07821474786
0.07811423068
0.07727290786
0.0880338495
0.08277687883
0.07665072043
0.07883332829
0.09625964858
0.08821033061
0.08531826093
0.09104050557
0.08711073658
0.09300362288
0.08316995509
0.08068240003
0.1000223661
0.09580261793
0.09405301689
0.08225109337
0.09627236428
0.09925568419
0.09242831715
0.09673702519
0.08962472546
0.08729264453
0.1020931629
0.1049950827
0.0930462098
0.1083083687
0.09596486515
0.08070711422
0.07985925287
0.0834406474
0.09926620696
0.1114622832
0.0834640337
0.1002098838
0.11886013
0.1168818552
0.1042409739
0.0898545821
0.08928466607
0.09234340258
0.08204935437
0.08975467786
0.09053435014
0.08253348642
0.09621922168
0.09156293595
0.08818279715
0.08310492594
0.09662164269
0.08152253276
0.07132431357
0.08022477143
0.09304044911
0.08103828023
0.08867073945
0.08541887733
0.09299420181
0.0842316033
0.07280796952
0.0737196479
0.08038239508
0.08644238528
0.08624486268
0.07789265735
0.07307318427
0.07696680561
0.08341416324
0.08652765323
0.0914672962
0.09448608146
0.08759452787
0.09428621432
0.1045623814
0.1032371405
0.09526783114
0.09902611348
0.08293702575
0.09777188081
0.1017679037
0.1039671621
0.09922814352
0.09059637482
0.08139526334
0.08628310056
0.09107806621
0.09286027426
0.0918556446
0.08106012768
0.08209372841
0.08513592765
0.08603654559
0.09186227384
0.08646477676
0.07857567619
0.08064473254
0.08355985008
0.07438622731
0.07899410095
0.09822708126
0.09242906644
0.095507244
0.1118598588
0.1072679764
0.09660644077
0.1116790552
0.1098419191
0.1007843655
0.1073983567
0.09731501252
0.09558652365
0.0844370618
0.08360706225
0.07509784221
0.07378083817
0.08855339663
0.0822094444
0.086294587
0.09639885288
0.08728167941
0.076535805
0.07334672099
0.09258205429
0.1025355175
0.09906244594
0.09713140207
0.09507864188
0.09902949701
0.09328183107
0.09177419528
0.09304484211
0.09715711745
0.08249290116
0.1127276858
0.1066556495
0.09423873712
0.1097583957
0.08987910941
0.0937679645
0.09616485162
0.1139370723
0.1212860244
0.1133352998
0.09553432392
0.08426182987
0.08167250182
0.083639467
0.08465969542
0.09182626218
0.08928711365
0.08722240967
0.07711057213
0.09793801473
0.08891503997
0.1022187657
0.1106385043
0.1107325756
0.1120377663
0.1150149005
0.1061492824
0.09665884853
0.0736418042
0.07244203817
0.09584634939
0.106115025
0.08899410954
0.0798892572
0.07605481678
0.07482867103
0.0820402604
0.08893292486
0.08060217922
0.09239544872
0.09971839767
0.09427712843
0.09962918129
0.1015830969
0.09651626869
0.1023588453
0.09527613133
0.1064638738
0.1056689714
0.08516096327
0.08385253935
0.07675689541
0.07731258063
0.07592331326
0.08947356296
0.07606879587
0.07116467381
0.08908670591
0.09701367515
0.08959877336
0.1087225862
0.09902922712
0.106158306
0.1033843842
0.1142125101
0.1091642986
0.1071010249
0.09449180935
0.107909372
0.09979281063
0.09747975904
0.08944828732
0.09173161514
0.07845139469
0.0838253656
0.1077727617
0.1069284496
0.0849080422
0.0813404074
0.1023142261
0.10789461
0.1038959665
0.1090445436
0.0947696274
0.09239916044
0.08490635632
0.0865249374
0.0932403002
0.09102712741
0.1014301601
0.1016036275
0.0956832752
0.09013273464
0.08816148147
0.08921868269
0.09396032592
0.09067244984
0.1101011141
0.1194670641
0.1105722918
0.07735731133
0.07896869762
0.08118632755
0.09461633901
0.09491279429
0.09535571325
0.1042702529
0.09708147982
0.08608330316
0.1017344192
0.09869643765
0.1029055482
0.100892828
0.1085700739
0.1157069754
0.09332347362
0.08372032701
0.09001476384
0.0968411369
0.1013970649
0.1025030431
0.1068146127
0.1223970736
0.1238972015
0.1184808211
0.1037436643
0.09881960421
0.102006931
0.100146689
0.0850235058
0.09090380101
0.09509790685
0.08904671825
0.07590396472
0.08373484392
0.09796624714
0.09602101872
0.09367928027
0.09292884911
0.09966060209
0.08952045848
0.0957353022
0.09283315933
0.1069589535
0.1175074881
0.1019755161
0.103597406
0.1117069677
0.1273502037
0.123777772
0.1010877724
0.1013550402
0.1017560215
0.0957040632
0.08773341055
0.08606748412
0.09288193635
0.09223815025
0.08637617664
0.08913394791
0.08881488532
0.1047688043
0.1024178149
0.09774801233
0.08356740408
0.08764720842
0.0844729842
0.09760630555
0.09501915558
0.09672805891
0.08084607152
0.08633795185
0.0879834802
0.07570179068
0.08865887856
0.09539621839
0.09674433934
0.08563079881
0.09502614204
0.07514209177
0.09435259893
0.09992971016
0.1039215922
0.1017353954
0.1009421379
0.1099426198
0.09364052865
0.08583682035
0.07402465594
0.0746885814
0.07300098426
0.08140982583
0.07645932175
0.07917142834
0.08823817567
0.08174547053
0.08302224195
0.08289183646
0.08038468726
0.08921274346
0.09818178324
0.1007475612
0.09558891077
0.09706085292
0.09925187329
0.09218004964
0.08930383513
0.08062245439
0.0884324298
0.09928294803
0.09458888027
0.1012037912
0.1101352332
0.1076737178
0.1071647518
0.09795899398
0.09662460811
0.09288654631
0.09854193993
0.1040898083
0.1027707449
0.09583602854
0.07318451394
0.06052268738
0.07054843893
0.08392776423
0.08222469409
0.09173423779
0.1065652274
0.09545399251
0.09962618033
0.107299237
0.1014220471
0.09245786555
0.0932024242
0.1097803276
0.1088848405
0.1017071123
0.1024329762
0.1053843934
0.0728210196
0.07192843073
0.07104620315
0.0868592663
0.09876486486
0.1030133408
0.08877180803
0.08155109755
0.07884971623
0.08472814438
0.08904059061
0.08608898918
0.09003181348
0.1032178655
0.1123442668
0.09228641042
0.09311454939
0.1035883032
0.08014148105
0.07441831319
0.09639168138
0.1011151566
0.1078216235
0.09627828692
0.08842000518
0.06930080752
0.07936497233
0.07717417295
0.08593775604
0.09605927843
0.1028095839
0.0928128874
0.08696039605
0.07573679786
0.06446473854
0.08409528857
0.0956403242
0.09375992446
0.09273914812
0.09179377434
0.08961827509
0.09158304561
0.09304511867
0.09812895295
0.1055452352
0.0890482335
0.08985596419
0.08669242839
0.08621538082
0.08448089906
0.08876756838
0.09425610349
0.09462677054
0.09736819274
0.08803212951
0.08985189657
0.08819661255
0.08187102035
0.09608637475
0.08745930565
0.09050978743
0.09212954766
0.07920323839
0.07890027876
0.08471855283
0.08372508715
0.08503613817
0.08595953474
0.09146598533
0.0892200477
0.07847319033
0.08416625702
0.08166173054
0.08613021311
0.09654752788
0.09146970741
0.09301226778
0.09254869179
0.08832963143
0.09249804425
0.1052983562
0.09619470491
0.08913541684
0.09019604897
0.0942617757
0.08619394617
0.08522705755
0.09321110141
0.07742279087
0.08652010251
0.09450139696
0.09065730743
0.09184571493
0.09219604555
0.08805846586
0.08959379405
0.09200958173
0.08014949382
0.09517904825
0.1062452457
0.1054293404
0.1058816184
0.1025883626
0.1031198433
0.1188392716
0.1066869011
0.08641048772
0.08801989597
0.1066560745
0.1086304345
0.08963902506
0.09674063673
0.09097726506
0.08065449371
0.07732513931
0.08872924529