/*--------------------------------*- C++ -*----------------------------------*\
| =========                 |                                                 |
| \\      /  F ield         | OpenFOAM: The Open Source CFD Toolbox           |
|  \\    /   O peration     | Version:  2.4.0-MNF                             |
|   \\  /    A nd           | Web:      www.OpenFOAM.org                      |
|    \\/     M anipulation  |                                                 |
\*---------------------------------------------------------------------------*/
FoamFile
{
    version     2.0;
    format      ascii;
    class       volScalarField;
    location    "0.0007";
    object      rhoM_mixture;
}
// * * * * * * * * * * * * * * * * * * * * * * * * * * * * * * * * * * * * * //

dimensions      [0 -3 0 0 0 0 0];

internalField   nonuniform List<scalar> 
5120
(
4.6314432e-06
4.7031824e-06
4.6096784e-06
4.5352528e-06
4.7142912e-06
4.8747936e-06
5.2802352e-06
5.1755456e-06
5.3126304e-06
5.2892512e-06
5.295128e-06
5.0076928e-06
4.8556896e-06
5.0783728e-06
5.0326864e-06
4.9093712e-06
4.8391952e-06
4.7414672e-06
4.6984288e-06
4.507624e-06
4.953392e-06
4.7658032e-06
4.9720048e-06
5.0570352e-06
5.06928e-06
5.006544e-06
4.9278816e-06
5.0490784e-06
5.091096e-06
5.0581328e-06
4.7987664e-06
4.8248064e-06
4.9082352e-06
4.7743408e-06
4.8928128e-06
4.885928e-06
4.83492e-06
4.7871024e-06
4.6872176e-06
4.669664e-06
4.7468272e-06
5.0560656e-06
4.8838864e-06
4.9354112e-06
4.9529392e-06
4.8360816e-06
4.8913392e-06
4.7090592e-06
4.8297008e-06
4.6548096e-06
4.7754512e-06
4.6925392e-06
4.8349712e-06
4.8084272e-06
4.7627024e-06
4.632528e-06
4.6256176e-06
4.5416848e-06
4.6325536e-06
4.6224784e-06
5.0566208e-06
5.0066464e-06
5.119848e-06
4.9801024e-06
5.0427872e-06
5.01676e-06
5.0029136e-06
4.9401648e-06
4.7918688e-06
5.0256992e-06
5.0703392e-06
5.0331904e-06
5.1867312e-06
5.0427616e-06
4.9040752e-06
4.9157904e-06
4.6649872e-06
4.593752e-06
4.5916336e-06
4.947152e-06
4.589528e-06
4.4784448e-06
4.2430128e-06
4.3779536e-06
4.4693392e-06
4.5043952e-06
4.5925776e-06
4.6138512e-06
4.7610752e-06
4.8763696e-06
4.7057792e-06
4.8360048e-06
4.7807856e-06
4.6776848e-06
4.7218208e-06
4.7876704e-06
4.791416e-06
4.994944e-06
5.0587008e-06
4.8584016e-06
4.8067872e-06
4.6649104e-06
4.7892464e-06
4.8136976e-06
4.9927744e-06
5.119216e-06
4.9858512e-06
5.0671488e-06
4.9757376e-06
4.7111264e-06
4.6670416e-06
4.6691088e-06
4.6398784e-06
4.7482624e-06
4.9857872e-06
4.97628e-06
5.1691904e-06
4.9157392e-06
5.014048e-06
5.0384864e-06
5.1388752e-06
5.2047504e-06
5.1022048e-06
4.96884e-06
4.8041392e-06
4.4508032e-06
4.4098704e-06
4.590536e-06
4.8376064e-06
4.9646032e-06
5.32596e-06
5.1952688e-06
4.9428256e-06
4.9508848e-06
4.859512e-06
4.7042928e-06
4.8344416e-06
4.9901136e-06
5.1160512e-06
5.101688e-06
4.7324e-06
4.7041776e-06
4.7169264e-06
4.943304e-06
4.9018416e-06
4.9948032e-06
5.0203136e-06
5.0835792e-06
5.113352e-06
4.9029648e-06
4.8753104e-06
5.0182976e-06
5.05232e-06
4.9252976e-06
5.0034048e-06
4.981136e-06
4.774456e-06
4.6958064e-06
4.5666784e-06
4.689904e-06
4.5761728e-06
4.442808e-06
4.363112e-06
4.534232e-06
4.5863376e-06
4.4571968e-06
4.7451872e-06
4.7472672e-06
4.8481856e-06
4.8774416e-06
4.9523712e-06
4.9996464e-06
4.9773392e-06
4.6330192e-06
4.5363248e-06
4.7041904e-06
4.6797392e-06
4.7408736e-06
4.4868672e-06
4.6361968e-06
4.7829168e-06
4.7276848e-06
4.7510896e-06
4.6426288e-06
4.8758784e-06
5.0225216e-06
5.0788512e-06
5.0990528e-06
5.0581712e-06
5.1506416e-06
4.7541904e-06
4.6776848e-06
4.6197408e-06
4.5926032e-06
4.681896e-06
4.75472e-06
4.7191472e-06
4.9401776e-06
4.8535712e-06
4.77332e-06
4.9938336e-06
5.0480448e-06
4.8610112e-06
4.6368032e-06
4.8461696e-06
4.9210736e-06
4.8998e-06
4.8434832e-06
4.811088e-06
4.791984e-06
4.9396992e-06
5.12508e-06
5.1048784e-06
4.839776e-06
4.5687328e-06
4.5469552e-06
4.574584e-06
4.4433248e-06
4.5225168e-06
4.7441152e-06
4.6208256e-06
4.6431456e-06
4.64848e-06
4.8737856e-06
4.7956912e-06
4.6586192e-06
4.6532848e-06
4.7520976e-06
4.852008e-06
4.8179728e-06
4.8572912e-06
4.6229696e-06
4.47528e-06
4.4083072e-06
4.180896e-06
4.372696e-06
4.3418384e-06
4.43644e-06
4.536376e-06
4.5432608e-06
4.6096912e-06
4.454536e-06
4.3535792e-06
4.54432e-06
4.5597296e-06
4.6590848e-06
4.6553904e-06
4.5246608e-06
4.684608e-06
4.4248144e-06
4.1665584e-06
4.3041984e-06
4.582088e-06
4.67616e-06
4.5640176e-06
4.5512816e-06
4.7462976e-06
4.5406384e-06
4.6586064e-06
4.7935728e-06
4.3732128e-06
4.5155936e-06
4.5113568e-06
4.354096e-06
4.3923424e-06
4.6378752e-06
4.8280608e-06
4.9577056e-06
4.8955632e-06
4.8472032e-06
4.8626128e-06
4.6771168e-06
4.5086576e-06
4.2764032e-06
4.2657856e-06
4.1526096e-06
4.254664e-06
4.4539424e-06
4.5963872e-06
4.5783168e-06
4.5931328e-06
4.4501968e-06
4.4863248e-06
4.6212912e-06
4.7073808e-06
4.7195616e-06
4.5288208e-06
4.6250368e-06
4.63776e-06
4.4060736e-06
4.3470704e-06
4.509136e-06
4.6313664e-06
4.4991248e-06
4.4306144e-06
4.6740032e-06
4.55548e-06
4.5002096e-06
4.5092128e-06
4.640976e-06
4.7111392e-06
4.6664608e-06
4.7669008e-06
4.7169648e-06
4.5745456e-06
4.4592384e-06
4.3832368e-06
4.4533616e-06
4.5474208e-06
4.657432e-06
4.6611776e-06
4.6797776e-06
4.469352e-06
4.6452512e-06
4.670736e-06
4.9895968e-06
4.9343392e-06
4.941224e-06
4.7222864e-06
4.5352528e-06
4.9004192e-06
4.9545664e-06
4.738768e-06
4.8456016e-06
5.007112e-06
5.0358384e-06
4.805728e-06
4.8142144e-06
4.7435728e-06
4.8376064e-06
5.029432e-06
5.035296e-06
5.0252208e-06
5.13416e-06
4.9901264e-06
4.8657776e-06
4.7069024e-06
4.7281632e-06
4.7696384e-06
4.8222736e-06
5.1515984e-06
5.3232096e-06
5.118648e-06
4.9438336e-06
4.9220944e-06
4.9438848e-06
5.1718384e-06
5.0453584e-06
4.8397376e-06
4.5846848e-06
4.4183312e-06
4.508696e-06
4.3402368e-06
4.4438288e-06
4.532024e-06
4.6877472e-06
4.8891184e-06
4.9002528e-06
4.9836432e-06
5.0995312e-06
5.0017904e-06
4.7148848e-06
4.6181776e-06
4.7983648e-06
4.7605968e-06
4.7738496e-06
4.6186944e-06
4.6978736e-06
4.497032e-06
4.4800592e-06
4.3844112e-06
4.5369056e-06
4.3599472e-06
4.3679168e-06
4.1500384e-06
4.476288e-06
4.6537504e-06
4.8051728e-06
4.914112e-06
4.9741744e-06
4.8503552e-06
4.5421888e-06
4.509264e-06
4.4540064e-06
4.560336e-06
4.6161104e-06
4.5804992e-06
4.5486464e-06
4.5103872e-06
4.6883792e-06
4.6952768e-06
4.7627536e-06
4.9205312e-06
4.8610112e-06
5.2143856e-06
5.2510048e-06
5.4003216e-06
5.3854288e-06
5.0910704e-06
4.7568128e-06
4.8811744e-06
4.81632e-06
4.9347792e-06
4.8880464e-06
4.8247808e-06
4.989016e-06
4.8492576e-06
4.7738368e-06
4.917328e-06
4.9492704e-06
5.0725088e-06
4.8169136e-06
4.8546304e-06
4.8275184e-06
4.9284752e-06
4.8678832e-06
4.6797648e-06
4.5431968e-06
4.6781504e-06
4.8205824e-06
4.7190832e-06
4.4879392e-06
4.6531824e-06
4.6898784e-06
5.0108064e-06
4.9348304e-06
5.0400368e-06
4.865184e-06
4.5936496e-06
4.8247552e-06
4.8274032e-06
4.9591792e-06
4.9815632e-06
4.8827248e-06
4.59848e-06
4.5299184e-06
4.3918e-06
4.4390752e-06
4.3854064e-06
4.6213424e-06
5.1022432e-06
5.1277792e-06
4.9784496e-06
4.7903696e-06
4.6165888e-06
4.6197536e-06
4.7488688e-06
4.797216e-06
4.8546048e-06
4.5666016e-06
4.5506624e-06
4.5836512e-06
4.4773856e-06
4.9056e-06
5.14784e-06
5.2892128e-06
5.2451152e-06
4.9258272e-06
5.0400752e-06
4.9353984e-06
4.7228416e-06
4.8557024e-06
4.8025376e-06
4.6946704e-06
4.7255024e-06
4.646904e-06
4.6209024e-06
4.4210816e-06
4.4285088e-06
4.6080896e-06
4.6298288e-06
4.8321952e-06
4.9522688e-06
4.8944016e-06
4.6553136e-06
4.5931584e-06
4.6925136e-06
4.8253744e-06
4.8774544e-06
4.8864832e-06
4.345584e-06
4.4965024e-06
4.6553904e-06
4.6117584e-06
4.8306832e-06
4.9411984e-06
4.5719104e-06
4.7106096e-06
4.8338992e-06
4.7786288e-06
4.7642912e-06
4.758e-06
4.9009232e-06
4.729312e-06
4.7059072e-06
4.6665632e-06
4.7143296e-06
4.4114464e-06
4.563928e-06
4.4072352e-06
4.7882128e-06
4.8051984e-06
4.7918944e-06
4.90932e-06
4.5989968e-06
4.6244816e-06
4.7604688e-06
4.9996336e-06
4.9395968e-06
4.837568e-06
4.9704672e-06
4.8418816e-06
4.7515424e-06
4.8775184e-06
4.7000176e-06
4.7292608e-06
5.0283856e-06
5.0342624e-06
4.8806576e-06
4.9725984e-06
4.7138512e-06
4.7733712e-06
4.7882e-06
5.0225728e-06
4.941792e-06
4.7361712e-06
4.8111136e-06
4.6383664e-06
4.8296368e-06
4.874264e-06
5.0379568e-06
5.014112e-06
5.1889008e-06
5.0916128e-06
5.2372224e-06
5.0437952e-06
4.8338992e-06
4.4927696e-06
4.5485568e-06
4.7058432e-06
4.2617024e-06
4.26488e-06
4.394008e-06
4.4625312e-06
4.470488e-06
4.6303968e-06
4.7898016e-06
4.8148208e-06
4.602832e-06
4.825464e-06
4.8944656e-06
5.1696816e-06
5.01512e-06
5.0868592e-06
4.9625616e-06
5.0635184e-06
4.8328656e-06
4.7462464e-06
4.6590848e-06
4.4030112e-06
4.3120528e-06
4.4417232e-06
4.5995392e-06
4.6840272e-06
4.7626896e-06
4.8918304e-06
4.8854624e-06
4.8227648e-06
4.6383024e-06
4.521368e-06
4.6951104e-06
4.7838992e-06
4.7142784e-06
4.5240928e-06
4.813672e-06
4.7764976e-06
4.8589056e-06
4.5687584e-06
4.4454688e-06
4.4996416e-06
4.9534944e-06
4.743624e-06
4.7419712e-06
4.7111264e-06
4.7791584e-06
4.7488688e-06
4.7408608e-06
4.7519696e-06
4.549048e-06
4.6430688e-06
5.00232e-06
4.8461056e-06
4.8642016e-06
4.8679088e-06
4.8960928e-06
4.8323104e-06
4.7201936e-06
4.678744e-06
4.6845952e-06
4.7372304e-06
4.5974208e-06
4.739776e-06
4.6239264e-06
4.6993728e-06
4.6042928e-06
4.6425392e-06
4.7716928e-06
4.6941408e-06
4.7079488e-06
4.7398528e-06
4.4991504e-06
4.427928e-06
4.7137744e-06
4.6872304e-06
4.5958448e-06
4.5682416e-06
4.51084e-06
4.59104e-06
4.568216e-06
4.6957424e-06
5.0915872e-06
4.8955248e-06
4.7191216e-06
4.9130528e-06
4.7727648e-06
4.8014144e-06
4.8508464e-06
4.9974896e-06
5.04904e-06
4.8280224e-06
4.8646928e-06
4.8801024e-06
4.786056e-06
4.9050576e-06
4.974136e-06
4.9342752e-06
4.8901776e-06
5.0166704e-06
4.94652e-06
5.0937184e-06
4.5718976e-06
4.7100544e-06
5.0225472e-06
4.9125488e-06
4.8529904e-06
4.80516e-06
4.6202448e-06
4.6787184e-06
4.7212016e-06
4.7584016e-06
4.876344e-06
4.9242128e-06
4.9635568e-06
4.998096e-06
4.7069152e-06
4.760016e-06
4.7456912e-06
4.7138256e-06
4.6686432e-06
4.6175968e-06
4.7212528e-06
4.6920224e-06
4.6229056e-06
4.6531952e-06
4.5564368e-06
4.6297776e-06
4.4475232e-06
4.5867776e-06
4.5660848e-06
4.9029776e-06
5.0294576e-06
5.1032896e-06
5.2733248e-06
5.3609648e-06
5.3295904e-06
5.3811408e-06
5.184032e-06
4.701568e-06
4.678176e-06
4.8753232e-06
4.656864e-06
4.567584e-06
4.8162432e-06
4.9320928e-06
4.9911216e-06
5.03416e-06
5.066064e-06
4.8657392e-06
5.0251056e-06
4.6903824e-06
4.6686176e-06
4.5985056e-06
4.6112544e-06
4.5889344e-06
4.7010256e-06
4.7627152e-06
4.7488944e-06
4.9422576e-06
4.9007824e-06
4.5298544e-06
5.3376624e-06
5.2701216e-06
5.18832e-06
5.1458368e-06
5.0464176e-06
4.9688528e-06
4.8647184e-06
5.024072e-06
4.9911728e-06
4.9550576e-06
5.0608064e-06
4.944944e-06
5.1022304e-06
4.8902544e-06
4.5634752e-06
4.3275392e-06
4.4964896e-06
4.724456e-06
5.086872e-06
5.3222656e-06
5.1538448e-06
4.9348944e-06
4.7664224e-06
4.5533232e-06
4.5070688e-06
4.6680624e-06
4.7323488e-06
4.7589568e-06
4.897656e-06
5.0363424e-06
4.9056256e-06
4.9162176e-06
4.740344e-06
4.5145088e-06
4.7408864e-06
4.8897248e-06
5.0746144e-06
5.1644368e-06
5.1288512e-06
5.2106656e-06
4.5941536e-06
4.6430304e-06
4.8455248e-06
5.0687504e-06
4.9752208e-06
4.984288e-06
4.7053008e-06
4.9258144e-06
4.7797008e-06
4.6612032e-06
4.7281248e-06
4.7281632e-06
4.71752e-06
4.671304e-06
4.8317552e-06
4.8726624e-06
4.819032e-06
4.7520848e-06
4.7509616e-06
4.4624032e-06
4.6033104e-06
4.6149872e-06
5.0395968e-06
5.166568e-06
5.1394816e-06
5.0751824e-06
4.8079104e-06
4.7834464e-06
4.822248e-06
4.9094096e-06
4.758504e-06
4.9784368e-06
5.0156368e-06
5.0703648e-06
4.8333824e-06
4.6250496e-06
4.5830704e-06
4.8184384e-06
4.4592512e-06
4.5294144e-06
5.1777664e-06
5.1788512e-06
4.9727008e-06
4.7973184e-06
4.680384e-06
4.7681008e-06
4.8047328e-06
4.8424752e-06
4.7988688e-06
4.9003552e-06
4.8844032e-06
4.907808e-06
4.7855136e-06
4.9932912e-06
4.9146928e-06
4.7999024e-06
4.8912368e-06
4.7897376e-06
4.874264e-06
4.9800512e-06
4.678176e-06
4.4523408e-06
4.4985696e-06
4.63032e-06
4.4347872e-06
4.5697536e-06
4.6776848e-06
4.4342832e-06
4.372696e-06
4.4577264e-06
4.5926672e-06
4.6606352e-06
4.7111648e-06
4.9560912e-06
4.8891056e-06
4.864176e-06
4.9169008e-06
4.8568512e-06
4.8791328e-06
4.746776e-06
5.0692672e-06
5.0873248e-06
5.049608e-06
4.9290048e-06
5.0209584e-06
4.9348816e-06
5.0129888e-06
4.747848e-06
4.820104e-06
4.7196896e-06
4.67988e-06
4.67824e-06
4.7138128e-06
4.70636e-06
4.8668624e-06
4.946016e-06
4.7297392e-06
4.9157136e-06
4.7568384e-06
4.908816e-06
4.6962848e-06
4.5852272e-06
4.6686432e-06
4.6133728e-06
4.5724912e-06
4.5342064e-06
4.6601696e-06
4.8275824e-06
4.9263952e-06
5.1049808e-06
4.8482752e-06
4.7164992e-06
4.7499664e-06
4.6420864e-06
4.5039168e-06
4.4720512e-06
4.5693392e-06
4.698984e-06
4.75264e-06
4.6766256e-06
4.8434448e-06
4.9412112e-06
4.8094608e-06
4.676096e-06
4.9279456e-06
4.947088e-06
4.9348816e-06
4.6543056e-06
4.7276592e-06
4.416768e-06
4.2605408e-06
4.3137184e-06
4.3599472e-06
4.34716e-06
4.3662768e-06
4.5624288e-06
4.3509184e-06
4.1442256e-06
4.3318016e-06
4.5809648e-06
5.1060144e-06
5.155976e-06
4.8918688e-06
4.75056e-06
4.8562064e-06
4.8104944e-06
4.667016e-06
4.5633728e-06
4.474648e-06
4.6638256e-06
4.6558944e-06
4.5570816e-06
4.4991376e-06
4.4885328e-06
4.354664e-06
4.4396432e-06
4.6075216e-06
4.8439744e-06
4.9710096e-06
5.066696e-06
4.7047712e-06
4.503904e-06
4.5788464e-06
4.5868416e-06
4.597472e-06
4.4821904e-06
4.4859232e-06
4.8175328e-06
4.9025376e-06
4.8472288e-06
4.7398528e-06
4.6505728e-06
4.6749856e-06
4.7929664e-06
4.7823104e-06
4.8041136e-06
4.8859664e-06
5.0581328e-06
4.906672e-06
4.8859664e-06
5.4359328e-06
5.3137408e-06
5.2010688e-06
4.8716032e-06
4.8105328e-06
4.5533488e-06
4.6335744e-06
4.5868416e-06
4.4656448e-06
4.55756e-06
4.8136848e-06
4.7717568e-06
4.669224e-06
4.8111008e-06
4.9566464e-06
5.077288e-06
5.145824e-06
5.1527216e-06
5.2207536e-06
5.2616096e-06
4.64312e-06
4.7483264e-06
5.0384224e-06
5.3301456e-06
5.241976e-06
5.3317472e-06
5.177664e-06
5.086808e-06
5.0198864e-06
5.0798976e-06
4.9008336e-06
4.6824256e-06
4.6144192e-06
4.3455584e-06
4.4736016e-06
4.4177888e-06
4.52036e-06
4.5750752e-06
4.7833568e-06
4.7780992e-06
4.896016e-06
4.6936112e-06
4.6537376e-06
4.8822464e-06
5.0411216e-06
4.966696e-06
5.0820416e-06
5.1936288e-06
5.2132496e-06
5.2074112e-06
5.1404128e-06
5.3062112e-06
5.127664e-06
5.0867952e-06
4.9848304e-06
4.7159056e-06
4.430072e-06
4.4465152e-06
4.4831984e-06
4.8556128e-06
4.4704624e-06
4.5352528e-06
4.649488e-06
4.6468016e-06
4.5416336e-06
4.6048608e-06
4.6771296e-06
4.7186048e-06
4.7488688e-06
4.8593584e-06
4.7610496e-06
4.7429536e-06
4.7249088e-06
4.873696e-06
4.9252464e-06
5.0198224e-06
5.0581328e-06
5.1622672e-06
5.0294064e-06
4.6718592e-06
4.826976e-06
4.7892464e-06
4.82168e-06
4.9152224e-06
4.9051344e-06
4.8498896e-06
4.8902416e-06
4.8551728e-06
4.9465584e-06
4.7977328e-06
4.9002784e-06
4.8317552e-06
4.8397504e-06
4.8758784e-06
4.94816e-06
4.7913648e-06
4.57824e-06
4.7685152e-06
4.7600416e-06
4.8854752e-06
4.7409504e-06
4.914176e-06
4.8275568e-06
4.6070432e-06
4.6298672e-06
4.9125872e-06
5.0565312e-06
4.9720304e-06
4.9428256e-06
5.1118144e-06
5.0294704e-06
5.0421936e-06
4.988512e-06
4.8827888e-06
5.037376e-06
5.148472e-06
5.0342496e-06
4.9327632e-06
4.8020336e-06
4.8062704e-06
4.5762112e-06
4.7488944e-06
4.8110368e-06
5.098472e-06
5.1749776e-06
4.8577568e-06
4.7924368e-06
4.8418816e-06
4.6867136e-06
4.7712016e-06
4.63732e-06
4.5475872e-06
4.5311056e-06
4.7069536e-06
4.9030416e-06
4.7850736e-06
4.633096e-06
4.5374096e-06
4.6936624e-06
4.7345952e-06
4.8429152e-06
4.7148464e-06
4.6069792e-06
4.8174048e-06
4.8981856e-06
4.9667344e-06
5.0565056e-06
5.0873632e-06
4.9932784e-06
4.8960288e-06
4.6887936e-06
4.9273904e-06
4.843936e-06
4.5920864e-06
4.5453536e-06
4.5256816e-06
4.46084e-06
4.5559328e-06
4.694128e-06
4.841856e-06
4.8146672e-06
4.716888e-06
4.8077184e-06
4.8003168e-06
4.6945808e-06
4.9867952e-06
4.812536e-06
4.9964048e-06
4.9230768e-06
4.9193568e-06
5.0750032e-06
4.9220048e-06
5.0490272e-06
4.8906688e-06
4.7508976e-06
4.8322336e-06
4.8311872e-06
4.9024096e-06
4.7887168e-06
4.84072e-06
4.8759296e-06
4.875904e-06
4.9545664e-06
4.6973952e-06
4.820104e-06
4.8817424e-06
5.0958624e-06
4.96884e-06
4.855664e-06
4.8445296e-06
4.7196512e-06
4.7345184e-06
4.6457936e-06
4.544888e-06
4.7637872e-06
4.8046688e-06
4.9396608e-06
4.789272e-06
5.040592e-06
4.8344672e-06
4.7887168e-06
4.8488048e-06
4.9029776e-06
4.7164352e-06
4.9985872e-06
4.7754384e-06
4.796208e-06
4.87376e-06
4.922624e-06
4.8636464e-06
4.8530032e-06
4.6664608e-06
4.5187456e-06
4.582528e-06
4.6479248e-06
4.850368e-06
4.965624e-06
4.9326864e-06
4.7567744e-06
4.7254512e-06
5.3163504e-06
5.150552e-06
5.1000864e-06
4.8248576e-06
4.70636e-06
4.6564112e-06
4.5708512e-06
4.79936e-06
4.861528e-06
5.0235808e-06
5.0873376e-06
4.9762672e-06
4.9938208e-06
5.1473872e-06
5.2361248e-06
4.9799744e-06
4.8880592e-06
5.0065824e-06
5.1282832e-06
5.3604608e-06
4.2786496e-06
4.366896e-06
4.4306528e-06
4.719728e-06
4.606552e-06
4.6905104e-06
4.837696e-06
4.6766512e-06
4.7340272e-06
4.9099392e-06
4.8052496e-06
4.9758144e-06
4.9205184e-06
4.8657776e-06
5.1718384e-06
5.2504752e-06
5.0745888e-06
4.6771296e-06
4.670232e-06
4.5347616e-06
4.7329296e-06
4.7526272e-06
4.7526528e-06
4.8105584e-06
4.5836384e-06
4.7005984e-06
4.615568e-06
4.602832e-06
4.49552e-06
4.3956352e-06
4.6766768e-06
4.5938032e-06
4.812664e-06
4.8631296e-06
4.8047072e-06
4.5820496e-06
4.7106096e-06
4.7616048e-06
4.8487408e-06
4.8439744e-06
5.1085728e-06
5.1415104e-06
5.126656e-06
5.288192e-06
5.085232e-06
4.9082736e-06
4.6526528e-06
4.616008e-06
4.8795984e-06
4.8631424e-06
4.8041648e-06
4.8695104e-06
5.0921808e-06
4.8201552e-06
4.9062064e-06
4.6623264e-06
4.805224e-06
4.6782016e-06
4.8290944e-06
4.9396224e-06
4.8104944e-06
4.6133984e-06
4.4869312e-06
4.488584e-06
4.6277616e-06
4.6564368e-06
4.5687584e-06
4.61872e-06
4.5246608e-06
4.506048e-06
4.6043056e-06
4.7392976e-06
4.754656e-06
4.8189552e-06
4.8582736e-06
4.7902928e-06
5.033656e-06
4.9363936e-06
4.7382e-06
4.960832e-06
4.3917616e-06
4.741416e-06
4.5389472e-06
4.462984e-06
4.5676608e-06
4.7036992e-06
4.782336e-06
4.7658288e-06
4.885424e-06
4.6803072e-06
4.8636592e-06
4.9667344e-06
4.9141504e-06
4.8313024e-06
4.8365728e-06
4.8907584e-06
4.7095504e-06
4.7000048e-06
4.6048736e-06
4.3285728e-06
4.3944096e-06
4.4162128e-06
4.4799824e-06
4.4067312e-06
4.4587856e-06
4.5618608e-06
4.9046176e-06
4.8828016e-06
4.845576e-06
4.9141248e-06
4.7138256e-06
4.5400576e-06
4.422632e-06
4.4481168e-06
4.4353808e-06
4.5501456e-06
4.5261984e-06
4.7201296e-06
4.4278896e-06
4.4618992e-06
4.677168e-06
4.69892e-06
4.6957296e-06
4.644696e-06
4.68612e-06
4.780192e-06
4.8859536e-06
4.7031952e-06
4.7988688e-06
4.7069408e-06
4.8982368e-06
5.038512e-06
5.1139584e-06
5.1718768e-06
4.9343776e-06
4.813232e-06
4.85308e-06
4.8679344e-06
4.8541008e-06
4.81216e-06
4.7919456e-06
4.8010128e-06
4.870104e-06
4.947656e-06
4.8599776e-06
4.6601824e-06
4.6150256e-06
4.7892848e-06
4.9737088e-06
4.8626384e-06
4.8684256e-06
4.8397376e-06
4.6877344e-06
4.7626256e-06
4.9029136e-06
4.8317424e-06
4.9035072e-06
4.797784e-06
4.878552e-06
4.98164e-06
4.7669776e-06
4.9651584e-06
4.8631424e-06
4.8212144e-06
4.6650128e-06
4.6846592e-06
4.6766896e-06
4.8456272e-06
5.0422064e-06
5.2552672e-06
5.4194896e-06
5.340336e-06
5.2468192e-06
4.9556128e-06
4.8939744e-06
5.0948288e-06
5.1474384e-06
5.046456e-06
4.746776e-06
4.7643168e-06
4.9645776e-06
4.8955632e-06
5.0926592e-06
5.0490656e-06
5.2701216e-06
5.1516368e-06
4.9800384e-06
4.7202064e-06
4.8200784e-06
4.5145472e-06
4.620296e-06
4.6819344e-06
4.7127024e-06
5.0118528e-06
5.143616e-06
5.1463024e-06
5.27224e-06
5.3609648e-06
5.2073984e-06
5.0645008e-06
4.9937952e-06
5.0289152e-06
4.6558944e-06
4.6489968e-06
4.6495008e-06
4.759952e-06
4.542616e-06
4.6706592e-06
4.8030288e-06
4.9879824e-06
5.2882176e-06
5.0671616e-06
5.0666448e-06
4.7117072e-06
4.7966992e-06
4.573512e-06
4.8126128e-06
4.686624e-06
4.8030032e-06
4.7429408e-06
4.605416e-06
4.5964128e-06
4.6378496e-06
4.7824e-06
4.7388448e-06
4.733032e-06
4.8009872e-06
4.856232e-06
4.712728e-06
4.633032e-06
4.7860048e-06
4.7238496e-06
4.6526528e-06
4.7408992e-06
4.8992448e-06
4.7924752e-06
4.9487408e-06
4.9327888e-06
4.66708e-06
4.7286928e-06
4.588392e-06
4.6638128e-06
4.6500048e-06
4.9571248e-06
4.782272e-06
4.5718464e-06
4.586184e-06
4.465e-06
4.2933888e-06
4.5623008e-06
4.3311696e-06
4.4613568e-06
4.4188224e-06
4.5660592e-06
4.6410016e-06
4.5538144e-06
4.3147008e-06
4.0926112e-06
4.32692e-06
4.3354192e-06
4.934856e-06
4.752072e-06
4.5793504e-06
4.651064e-06
4.7211632e-06
4.833848e-06
4.9682976e-06
4.9396224e-06
5.0315504e-06
4.7531184e-06
4.8572656e-06
4.6224272e-06
4.6707744e-06
4.6452256e-06
4.8104816e-06
4.69892e-06
4.5203856e-06
4.569792e-06
4.693624e-06
4.693624e-06
4.7998896e-06
5.0613232e-06
4.9980832e-06
5.164424e-06
5.0406432e-06
5.3238288e-06
5.3508896e-06
5.177664e-06
4.9624848e-06
4.7956144e-06
4.7632064e-06
4.9810848e-06
4.8291328e-06
4.6378368e-06
4.54804e-06
4.5783168e-06
4.7488688e-06
4.8461184e-06
5.0788768e-06
4.8907712e-06
4.9810976e-06
4.937568e-06
4.9619936e-06
4.8790432e-06
4.6133728e-06
4.3827456e-06
4.4895536e-06
4.4598064e-06
4.5076368e-06
4.5719616e-06
4.5629328e-06
4.7446576e-06
5.1186864e-06
4.8875296e-06
4.9194464e-06
4.9449696e-06
5.2255456e-06
4.988008e-06
5.0129888e-06
4.9842624e-06
4.8621472e-06
4.955664e-06
5.0199376e-06
4.8631552e-06
4.734544e-06
4.9444144e-06
4.7557792e-06
4.9885504e-06
5.1155216e-06
4.9332672e-06
4.8041648e-06
4.8089312e-06
4.5741056e-06
4.6405104e-06
4.7064368e-06
4.6899424e-06
5.080504e-06
5.4254048e-06
5.495504e-06
5.19532e-06
4.4178528e-06
4.5012432e-06
4.4523792e-06
4.5995904e-06
4.615568e-06
4.6495648e-06
4.8116176e-06
4.9981088e-06
4.9688912e-06
4.9332416e-06
4.9375296e-06
4.650056e-06
4.4061504e-06
4.6368032e-06
4.9768608e-06
5.0098112e-06
4.6378112e-06
4.6117968e-06
4.6059712e-06
4.5214832e-06
4.638832e-06
4.6430688e-06
4.8168112e-06
4.859888e-06
4.9300512e-06
4.7706592e-06
4.8582992e-06
4.8349072e-06
4.9985616e-06
4.838136e-06
4.9358768e-06
4.8848816e-06
4.6515936e-06
4.7977072e-06
4.6075088e-06
4.7828656e-06
4.5751392e-06
4.4454688e-06
4.4603488e-06
4.3886096e-06
4.6701296e-06
4.8922576e-06
4.9124848e-06
4.7158672e-06
4.8981216e-06
4.9039728e-06
4.612288e-06
4.881704e-06
4.4985952e-06
4.6596144e-06
4.7457168e-06
4.708504e-06
4.716448e-06
4.8061936e-06
4.8019824e-06
4.8503168e-06
4.7551472e-06
4.5043696e-06
4.5585552e-06
4.663736e-06
4.351888e-06
4.1940336e-06
4.4389728e-06
4.6222864e-06
4.4352784e-06
4.579816e-06
4.6988176e-06
4.715312e-06
4.6717696e-06
4.6579616e-06
4.6314048e-06
4.4108656e-06
4.6484416e-06
4.6728672e-06
4.660648e-06
4.6978608e-06
4.8004192e-06
4.8396992e-06
4.9720304e-06
4.695704e-06
4.9289792e-06
5.012408e-06
4.8774672e-06
4.62616e-06
4.362608e-06
4.47156e-06
4.2711968e-06
4.1803408e-06
4.3509056e-06
4.5278512e-06
4.2292432e-06
4.2521184e-06
4.3461648e-06
4.4433888e-06
4.6782656e-06
4.7637872e-06
4.7690832e-06
4.7521104e-06
4.6277872e-06
4.6734608e-06
5.0379568e-06
5.1027344e-06
5.1351552e-06
4.9529264e-06
4.8455632e-06
4.9072016e-06
4.807808e-06
5.0878544e-06
4.9082864e-06
5.073064e-06
4.8780096e-06
4.8833312e-06
4.840784e-06
5.040592e-06
5.2971696e-06
5.3019872e-06
5.36524e-06
5.2818496e-06
5.143176e-06
4.9407328e-06
5.3429584e-06
4.9040752e-06
4.8254768e-06
4.853584e-06
4.9544896e-06
5.2227952e-06
5.12508e-06
4.860456e-06
4.6569152e-06
4.5421376e-06
4.6728416e-06
4.5527552e-06
4.593688e-06
4.7483392e-06
4.759008e-06
4.534232e-06
4.7515552e-06
4.9311232e-06
5.2445984e-06
5.31688e-06
4.8052624e-06
4.892928e-06
4.8116176e-06
4.7818448e-06
4.9481856e-06
4.8636976e-06
4.569288e-06
4.3721152e-06
4.353464e-06
4.4384816e-06
4.5570176e-06
4.7207104e-06
4.8546048e-06
4.8142528e-06
4.6654528e-06
4.732904e-06
4.6053904e-06
4.7169648e-06
4.7812896e-06
4.7520848e-06
5.0049552e-06
4.897592e-06
5.0012352e-06
4.808944e-06
4.8131936e-06
4.723888e-06
4.8811872e-06
5.0283984e-06
4.980568e-06
4.91096e-06
4.8428768e-06
4.7706208e-06
4.6005856e-06
4.7047072e-06
4.9725856e-06
4.8604944e-06
4.9556128e-06
4.8227392e-06
5.1267072e-06
5.0655216e-06
5.2834384e-06
5.262656e-06
5.2546224e-06
5.1307776e-06
4.8820928e-06
4.6382512e-06
4.579312e-06
4.7557536e-06
4.8700528e-06
5.037944e-06
5.0134928e-06
5.0316272e-06
5.012472e-06
4.9635824e-06
4.6208256e-06
4.6893616e-06
4.5745456e-06
4.7478224e-06
4.7908992e-06
5.2042976e-06
4.6930048e-06
4.6277104e-06
4.6675456e-06
4.8120704e-06
4.607496e-06
4.4975104e-06
4.4688736e-06
4.5358464e-06
4.6128944e-06
4.4630096e-06
4.5724784e-06
4.3684208e-06
4.2764928e-06
4.394448e-06
4.4757456e-06
4.5490864e-06
4.7669136e-06
4.806736e-06
4.7344672e-06
4.6781376e-06
5.056544e-06
4.9518672e-06
4.8190448e-06
5.0193824e-06
4.891352e-06
5.146392e-06
5.1468832e-06
4.9114256e-06
4.7950464e-06
4.5979248e-06
4.5070944e-06
4.511344e-06
4.6032592e-06
4.644696e-06
4.7833952e-06
4.7977968e-06
4.8907584e-06
4.9433808e-06
4.930632e-06
4.846144e-06
4.5373968e-06
4.5417104e-06
4.567712e-06
4.4821392e-06
4.5555056e-06
4.4932864e-06
4.773824e-06
4.7403568e-06
4.792928e-06
4.947024e-06
4.8311872e-06
4.6872176e-06
4.8678704e-06
4.82004e-06
4.6292608e-06
4.7280736e-06
4.821112e-06
4.7993216e-06
4.731328e-06
4.822752e-06
4.4343088e-06
4.3243488e-06
4.7563728e-06
4.8031312e-06
4.8254256e-06
4.7839376e-06
4.7361584e-06
4.7866624e-06
4.710144e-06
4.8827888e-06
5.0251696e-06
5.3679264e-06
5.2632624e-06
5.4120496e-06
5.3285952e-06
5.0820288e-06
5.1479296e-06
5.0352704e-06
4.784984e-06
4.727104e-06
5.0527856e-06
5.2445856e-06
4.9932528e-06
5.0362528e-06
4.8014144e-06
4.7514784e-06
4.7918688e-06
5.1010816e-06
5.2668416e-06
5.0968192e-06
4.9034304e-06
4.9337712e-06
4.8694976e-06
4.8710992e-06
5.00024e-06
4.8907072e-06
4.5819472e-06
4.80144e-06
4.7101056e-06
4.8460928e-06
4.9369616e-06
4.7945168e-06
4.7280608e-06
5.070288e-06
5.064424e-06
5.1212832e-06
4.8784752e-06
4.8684256e-06
4.5475232e-06
4.5756816e-06
4.7632064e-06
4.7121728e-06
4.7866112e-06
4.7813152e-06
4.4943456e-06
4.442808e-06
4.4518496e-06
4.5315456e-06
4.5549248e-06
4.8120704e-06
4.4863376e-06
4.5469424e-06
4.727608e-06
4.6447088e-06
4.6612032e-06
4.798288e-06
4.8450592e-06
4.829624e-06
4.8396736e-06
4.8673408e-06
4.8258912e-06
4.6686432e-06
4.6006112e-06
4.6298288e-06
4.8646928e-06
4.6638768e-06
4.8046944e-06
4.8142144e-06
4.7493728e-06
4.5644704e-06
4.9167856e-06
4.958248e-06
4.5612288e-06
4.7201168e-06
5.011336e-06
4.9119936e-06
5.1203008e-06
5.14904e-06
5.0825712e-06
5.036368e-06
4.8966224e-06
5.0523456e-06
4.8461312e-06
4.7441408e-06
4.7148848e-06
4.9327248e-06
4.8131424e-06
4.7478352e-06
4.720232e-06
4.9492192e-06
4.7259296e-06
4.6292352e-06
4.675464e-06
4.7010256e-06
4.682968e-06
4.6500688e-06
4.8163968e-06
4.747848e-06
4.7452e-06
4.9327376e-06
4.9332544e-06
4.8227264e-06
5.0331776e-06
4.8456016e-06
4.8774672e-06
4.9374912e-06
4.719096e-06
4.8141248e-06
4.9708816e-06
4.950176e-06
4.3036048e-06
4.3084096e-06
4.3243232e-06
4.640472e-06
4.5889216e-06
4.6346464e-06
4.6707488e-06
4.8769248e-06
4.8254e-06
4.9257888e-06
4.7929536e-06
4.9661792e-06
4.9039984e-06
4.9273648e-06
4.8534688e-06
4.6436496e-06
4.5188096e-06
4.5804096e-06
4.581456e-06
4.541608e-06
4.9135696e-06
4.9884864e-06
5.1229104e-06
4.954968e-06
4.9985488e-06
4.8258912e-06
4.8556896e-06
4.964112e-06
4.9380464e-06
5.00768e-06
4.9380464e-06
4.6718208e-06
4.622944e-06
4.4540192e-06
4.5804736e-06
4.6883152e-06
4.6697024e-06
4.794064e-06
4.6946448e-06
4.9273904e-06
4.713296e-06
4.7021104e-06
4.5777616e-06
4.8306576e-06
5.1017008e-06
5.0655728e-06
5.11764e-06
5.0453712e-06
4.8858896e-06
4.9847152e-06
5.104336e-06
5.2334896e-06
5.1362528e-06
4.804152e-06
4.6734352e-06
4.5278512e-06
4.5267664e-06
4.6133856e-06
4.591608e-06
4.638896e-06
4.7366496e-06
4.9183488e-06
4.9130912e-06
4.7132832e-06
4.7021488e-06
4.6431584e-06
4.5613312e-06
4.690976e-06
4.8227904e-06
4.7282016e-06
4.4667552e-06
4.4523664e-06
4.477864e-06
4.4667296e-06
4.6245328e-06
4.8370768e-06
4.8094224e-06
4.6877728e-06
4.7663968e-06
4.5708896e-06
4.5071072e-06
4.5044592e-06
4.5575856e-06
4.5591872e-06
4.7414544e-06
4.7297264e-06
4.4725424e-06
4.5368672e-06
4.4598448e-06
4.3742976e-06
4.3115744e-06
4.5252032e-06
4.6638768e-06
4.5841552e-06
4.7323872e-06
4.481584e-06
4.2796448e-06
4.2669216e-06
4.262672e-06
4.4311056e-06
4.6521744e-06
4.65056e-06
4.7350736e-06
4.9178448e-06
4.9688272e-06
5.0591664e-06
5.1053824e-06
4.8290688e-06
5.003896e-06
5.0793424e-06
5.2186096e-06
5.2090384e-06
5.15112e-06
5.082584e-06
5.0209072e-06
4.9093584e-06
4.9715392e-06
4.7648464e-06
4.9635824e-06
4.741984e-06
4.6435856e-06
4.4459344e-06
4.2796832e-06
4.2334928e-06
4.4901472e-06
4.6872432e-06
4.6819216e-06
4.6993984e-06
4.6526016e-06
4.7174688e-06
4.8423344e-06
4.7880848e-06
5.0096832e-06
4.8901648e-06
4.8572528e-06
5.003896e-06
4.9534304e-06
5.2058608e-06
5.0039216e-06
4.7514656e-06
4.560272e-06
4.5767408e-06
4.5523024e-06
4.6569664e-06
4.8152736e-06
4.8179216e-06
4.6006112e-06
4.6341168e-06
4.4502608e-06
4.7409248e-06
4.6883152e-06
4.8222224e-06
4.9252848e-06
5.0384352e-06
4.9682208e-06
4.8635952e-06
4.8960416e-06
4.7807088e-06
4.4343216e-06
4.5097808e-06
5.014552e-06
4.8752976e-06
4.796648e-06
4.7509744e-06
4.79564e-06
4.58152e-06
4.5953152e-06
4.7324384e-06
4.9938464e-06
5.1213472e-06
5.1016752e-06
5.0214368e-06
5.046456e-06
4.9838096e-06
4.8902928e-06
4.7722608e-06
4.87748e-06
4.8535584e-06
4.8408096e-06
4.9391184e-06
4.482592e-06
4.3709792e-06
4.300312e-06
4.2657472e-06
4.4086704e-06
4.647344e-06
4.8120832e-06
4.768528e-06
4.5304864e-06
4.503904e-06
4.7871152e-06
4.862032e-06
4.8301152e-06
5.0102768e-06
4.913608e-06
4.9369872e-06
4.6856288e-06
4.5432096e-06
4.6313792e-06
4.5580768e-06
4.7542032e-06
4.7999152e-06
4.71172e-06
4.684104e-06
4.7595376e-06
4.5836384e-06
4.4757712e-06
4.604912e-06
4.5693008e-06
4.7021744e-06
4.5927184e-06
4.5018112e-06
4.2467584e-06
4.3370592e-06
4.4188736e-06
4.4002992e-06
4.5310544e-06
4.6745456e-06
4.832904e-06
4.616072e-06
5.0325968e-06
4.932712e-06
4.6797776e-06
4.8141888e-06
4.6638e-06
4.7578464e-06
4.829056e-06
4.6032208e-06
4.2881696e-06
4.4804864e-06
4.6202448e-06
4.7780608e-06
4.6744688e-06
4.72496e-06
4.8456272e-06
4.9699632e-06
4.9136208e-06
4.6660208e-06
4.79936e-06
5.02836e-06