/*--------------------------------*- C++ -*----------------------------------*\
| =========                 |                                                 |
| \\      /  F ield         | OpenFOAM: The Open Source CFD Toolbox           |
|  \\    /   O peration     | Version:  2.4.0-MNF                             |
|   \\  /    A nd           | Web:      www.OpenFOAM.org                      |
|    \\/     M anipulation  |                                                 |
\*---------------------------------------------------------------------------*/
FoamFile
{
    version     2.0;
    format      ascii;
    class       volScalarField;
    location    "0.0007";
    object      rotationalT_N2;
}
// * * * * * * * * * * * * * * * * * * * * * * * * * * * * * * * * * * * * * //

dimensions      [0 0 0 1 0 0 0];

internalField   nonuniform List<scalar> 
5120
(
310.9140609
324.722309
312.0052614
306.0559788
300.5146291
292.5767582
288.5317007
299.4439473
286.3612877
289.2441538
300.4893121
296.2396197
288.4744187
292.8691875
301.2446743
297.8894744
296.2077434
305.0695072
285.3163062
293.4770565
289.0533277
291.968567
286.1167154
263.89897
270.6347596
280.915277
286.8211895
289.1408173
289.2853425
288.3088832
294.5203027
300.3525182
311.7463558
326.0963034
329.3070237
317.4721682
312.5293731
303.0856277
299.2720397
286.8232498
279.5090377
293.2505035
294.8097421
302.185714
305.9096296
321.256212
317.6038179
305.5555309
314.7570429
298.6369339
290.8580061
281.9489308
285.5508018
286.1972259
286.6496467
290.01217
305.3925555
304.8445645
306.7848236
298.4983953
307.2311232
280.4894734
294.7716693
297.9181186
294.6757472
281.7631267
276.5421324
307.3224661
309.8146701
320.1213477
332.9195045
338.0366603
321.786115
312.256558
303.6725679
300.4831963
298.088555
310.2871827
304.7736196
298.8523161
307.3573809
304.1610954
297.4629093
289.4102886
286.8300101
285.3622845
290.1511254
307.2483622
305.5395322
304.045004
294.5533695
277.727542
276.1378242
281.9001074
295.5711963
310.4809682
305.2218074
293.1397845
300.3139633
300.6084836
280.8501496
302.8334654
309.5132854
306.2967715
306.5276653
309.4677578
301.6215526
304.812245
297.4610631
305.6293748
293.6806851
286.4689543
286.3794661
288.6301603
305.9804605
310.5482305
300.6721846
300.440685
303.5667898
296.3768349
298.5977778
294.1951065
299.954168
298.5094574
295.5333029
299.3857458
300.4765341
287.7058956
279.1260904
286.8178637
293.2691388
305.7473171
305.2242088
301.1975714
285.1046106
274.9379261
294.7514662
308.1487161
290.9546037
288.3506932
280.2575162
270.0353234
263.4959727
285.6721274
294.9641511
301.4557553
313.6439912
296.0759228
308.428014
298.2800903
289.6475019
274.2290738
280.8943386
283.0744493
296.5965559
303.5077693
293.6846195
299.5287941
286.2864613
297.3854191
314.0391733
289.7557318
280.9649437
268.8046496
274.9555426
274.2464631
274.6880867
280.961446
291.3527429
296.597604
288.8183846
278.2481672
278.7369308
276.313012
272.3690756
287.4049784
279.9793766
279.6943409
299.4946701
293.1460263
304.9352292
318.6138076
310.2602888
297.8887028
323.7755638
316.7640089
303.9799162
287.7144235
284.1838732
288.6224552
294.9272212
298.34936
298.59989
308.6909168
333.7043408
338.9786409
331.9320733
323.3876203
306.8382129
299.1271815
316.3304512
319.1083832
312.6469026
314.6545531
306.3272803
315.4707075
320.9575577
335.5807864
339.8891363
340.7817767
334.3063765
326.5701014
342.8189788
339.1232822
329.0792426
323.2946465
330.6975975
329.9389447
327.2390196
316.1061696
294.4349836
297.8056055
306.2355837
304.847763
299.1975006
311.6106526
299.1457666
305.9901615
307.6236949
313.4931118
326.9608714
336.0429083
330.9259219
329.6189948
332.3011202
296.9568451
288.9726675
288.0535515
306.2458288
293.6183282
301.8645815
300.0198507
297.3043283
308.3107879
305.8211592
294.2679454
317.2427946
304.3169036
301.0364724
305.1328875
295.9062538
293.7413186
309.2326542
303.3007881
308.7207226
309.6688367
312.9695494
312.5535109
311.7891431
324.7214659
307.1197363
306.070195
300.7916665
308.5137645
296.4123756
308.6709683
304.9673231
293.5298999
279.4556984
297.7483164
311.8189782
321.7749536
312.5649791
301.5100264
290.3321855
294.7763335
284.9432024
299.6480327
294.0764581
285.8359891
301.4188971
296.7755814
296.9978335
295.8454784
301.9446021
298.4073523
321.1978267
324.2339493
320.1739784
291.588892
281.843577
294.197993
290.8133968
299.6766518
305.4571743
296.4729391
306.0796315
299.878955
304.620778
303.3717202
277.1464594
296.8401962
317.4636879
315.7466489
321.4639294
300.8563895
304.9856856
309.421453
316.0990335
334.3625446
331.7950776
337.1123481
335.9593967
324.0379925
287.1903246
280.0802402
280.0891017
280.1643706
266.5700916
261.7543315
293.7765532
282.3345593
292.5382377
302.660696
318.7578606
317.5551731
312.2542874
285.0051394
317.4645593
313.6424596
312.0627433
320.5310637
323.3598301
304.1548796
321.8430406
316.7888201
298.8673269
318.4024582
311.0009829
316.6220317
305.4724055
305.2941784
300.1710883
292.2567055
286.0759868
307.8914609
296.4787245
311.3642729
303.945117
313.7866943
306.3811021
314.3663028
314.6098054
292.3122977
295.8918617
304.9740805
303.4043427
298.0074462
292.00862
310.8150465
274.863735
278.1832139
258.9895292
257.8840412
264.1715332
260.7778251
278.6303985
270.6647775
276.9556515
280.5519467
284.6154099
292.7470568
283.0092675
287.0860277
294.2116034
286.1765131
285.6023828
278.3718962
275.7888058
265.0508275
297.8428587
317.884726
315.2765538
317.7272052
318.8937408
298.8248295
296.9459588
287.3062531
262.4031026
281.8675651
274.5257046
286.5750741
292.5686818
289.0809763
301.3780145
305.153055
294.458751
291.577667
286.7973971
304.5080247
298.5317705
293.5624182
301.1532912
303.5648256
303.9636442
319.2948609
304.0086008
292.76928
291.7327201
300.9405633
292.128841
283.7450392
279.2887117
271.8128961
266.7704742
283.3342308
294.0202823
305.5225394
317.9925923
308.1079867
324.3451653
305.7468516
315.6684861
318.4382884
305.8918986
300.8233299
316.4314696
324.2427291
298.8473669
291.0580271
304.8311347
313.2052424
297.6081584
300.2611384
286.7400346
286.1440634
282.6504229
278.6455141
299.1575162
311.1207619
296.067926
313.265376
308.139766
325.2146896
313.7876777
306.4678925
290.6109572
294.4696763
299.0917511
310.0337586
328.7128239
313.4030642
317.7460229
315.0644613
326.03539
325.4783108
311.8758563
302.1674698
276.6585223
280.5786317
286.7195245
275.5750897
280.6261561
273.3623818
295.1761225
299.3506817
300.1035143
302.6689626
287.1347933
289.5240538
284.1570032
304.1300778
291.4573587
286.0074789
280.0129737
273.5553663
296.0700045
292.3612024
305.543413
287.8106068
275.771825
296.3901066
296.6175771
289.285429
283.4806855
280.4697063
278.0029599
288.5111453
291.3577425
303.6329916
317.2045566
308.3990465
308.6252095
302.6136716
305.7726223
299.307062
284.4713589
282.7602577
269.2439261
269.1665957
310.5689938
307.1221421
316.9951018
327.2801205
308.5396137
295.0415278
290.3665927
287.1351337
287.468603
289.3042464
308.0979806
302.9735537
302.0702273
283.2952146
271.3762552
278.126474
291.9648199
285.3952925
303.6313925
306.8662303
288.9501521
276.4877735
281.3681734
295.4778705
301.9166636
308.2131968
305.101157
320.0447678
345.9466888
321.168494
329.1760716
311.6093945
299.7351658
297.3720643
299.6391704
303.3703147
290.6433573
304.8129098
304.7627836
299.0946719
343.0892601
343.6900751
318.8419728
305.4993935
317.049537
308.9798543
314.8999478
312.4987541
298.584752
305.3026365
323.0755833
335.5270875
320.4046372
298.24348
298.8871479
324.2593316
328.6999758
320.7883819
319.3119855
330.6650365
299.56958
296.2144911
304.4903316
293.8250358
305.5591356
312.3754101
309.7286045
301.576643
306.8829984
306.8764851
305.8765831
317.3957777
308.584301
302.842753
286.9202737
290.8708317
292.8991087
282.9227548
299.6337671
292.1125546
291.0262606
300.9417559
312.1424493
312.1260865
291.1247523
276.0350728
280.19445
290.7858366
308.4237323
304.9090685
296.630282
294.2083532
303.1647437
298.2674664
309.6220423
309.0546714
320.3453433
296.0926311
286.4718892
279.1313475
325.6381702
320.8518635
293.4800197
306.90457
304.0830388
306.5860364
305.5987248
292.690527
286.1974522
296.2373372
287.5993553
277.9299589
304.53138
315.2635853
310.0730513
308.9921117
319.7616239
334.7631944
323.2839383
328.9256823
325.4690162
360.3304565
350.8167483
346.4636802
348.4053362
323.1343744
316.1091777
319.8430042
313.0470952
313.4176118
316.0470228
298.9196621
302.1141786
292.9753995
301.5210824
283.3943876
296.472599
301.8717045
309.1925914
313.9427906
309.4271667
318.7824892
310.6939821
311.8816867
306.9855295
307.940959
309.5350931
312.3300504
307.8801657
316.1070386
317.4870723
292.8711795
288.5268455
293.1265824
303.228187
306.4310229
308.1951219
282.7935692
283.398661
298.3290094
306.4360765
292.1319038
293.6089957
298.644496
299.6786795
309.1829946
314.8448033
302.2034406
299.6882058
289.3579381
280.7298839
280.935134
300.232116
291.061473
274.041393
279.8363797
297.8923271
316.1191684
296.4105967
295.6927556
293.9091614
295.4067916
305.9597407
305.0353454
296.6292179
287.6650611
282.1833616
296.1341401
299.8772308
309.9352853
307.3412297
299.8364835
316.6587257
318.8496637
325.5754983
331.7663955
303.6857721
311.6759488
307.2630941
298.9078884
327.7865457
331.511477
344.3232811
324.745324
318.09382
316.8101853
315.7095152
312.35188
309.9581805
296.484222
290.8809772
283.8290198
287.9399773
283.7034037
290.5240216
288.0402424
309.275609
319.8394556
303.4441836
312.4245035
284.7693107
286.2328708
286.2986964
291.9007709
279.7116605
268.6919449
265.3306474
277.9701704
294.4885183
295.0329625
297.8393889
304.8374451
296.25814
293.283769
296.2181212
297.6570038
294.1931011
288.1047154
292.6565805
282.0625292
284.4452538
282.3339704
265.8862517
283.922061
293.9783823
288.4658532
275.1273802
259.8120198
264.0975758
277.8528156
294.5045836
298.9334049
301.3165767
313.297031
321.543342
306.8588742
314.7361959
301.7036929
309.2069244
295.8862027
312.1928093
302.4626754
308.8771544
290.0388872
276.5506486
288.2836635
295.2608706
309.3821329
315.8160368
315.1859654
299.7008064
301.4058243
296.5062248
275.669605
311.2897425
331.8702111
318.0644031
317.0538827
302.9962313
306.5057827
314.7306729
314.4149876
289.2827441
290.5542587
292.5156452
294.6720077
299.3076293
294.9173845
288.2395968
274.1206267
284.9524829
280.0305946
277.8493174
269.3336283
271.697255
279.4619336
279.7212717
297.2937541
301.6520611
303.1292976
273.7170866
267.9099032
268.1613557
257.4593323
256.7822548
268.2954836
282.0278095
270.1847501
267.727813
289.2159717
295.5853865
306.5273716
301.6993945
290.5674711
289.8882597
281.806544
289.1483132
287.8748993
280.448936
275.4021318
269.8479519
279.066861
284.1992825
284.8763086
285.1459849
306.5728141
299.6876949
324.0731089
328.8760725
326.6056747
303.6782909
300.1676115
306.8961829
304.1586346
291.8500326
280.0673472
271.5131825
283.3661993
279.3976885
271.3742308
308.2086056
318.3444146
311.9073135
305.9218998
312.6068153
318.2177378
321.3727744
311.1118779
301.0217407
289.8757791
279.6454814
265.6673495
269.7459536
279.8033529
293.95836
300.4376121
297.5619253
302.7680026
315.7817288
321.366526
296.1676389
313.5687862
310.6793138
314.1711792
311.1616078
314.3015044
310.3723013
304.3192254
309.6107382
305.5124904
322.5290756
318.3052923
330.0769619
341.7228285
307.7020299
309.390058
305.1499911
296.9208221
293.6990653
282.4346841
299.2641385
292.912185
295.0272918
294.486837
291.4355151
288.7049976
305.5930857
317.677046
318.8049639
314.1138451
312.6382988
299.6847842
301.240453
302.5120143
298.5966211
313.0661335
300.4157132
302.0684833
313.7612165
303.4715964
309.852773
310.2443184
315.0937876
309.7639837
320.9428441
323.2344165
300.8439864
305.3761355
312.409274
322.4253029
338.9911365
318.6595532
321.8653406
318.1837645
314.3962203
309.5112977
303.0645754
294.7064648
316.0905557
306.3126189
307.2735379
311.5209967
312.1375853
300.4687769
300.2785604
317.6380788
306.2042607
314.6737596
301.0999101
302.495943
313.364429
317.8265463
310.701157
311.2230462
308.392628
324.7422693
321.012766
320.5093328
313.3968933
315.0483973
292.7490499
290.8618265
300.0296073
320.271685
302.9263104
310.480434
312.9946318
312.8455957
302.7713878
308.2809445
301.4355181
301.2759671
297.214881
291.0093434
301.4937411
310.9348654
298.1590306
312.8574462
315.5141058
291.4321082
312.739033
294.9023606
294.2539489
303.3863577
292.1973359
284.5954483
281.0216051
301.8425072
303.5129154
300.9096146
288.1103113
292.4134014
297.3332437
311.7186544
315.0324375
296.9519853
299.7082402
304.9644057
306.7483216
307.3879891
294.8446825
304.8218427
309.3693456
310.1336751
301.4905429
301.5503939
314.7987142
319.4520363
318.9382849
320.6294116
321.2815195
304.3660434
314.6504656
305.2295369
305.7616253
303.8308947
314.2478353
308.5939152
299.9848978
300.2321567
315.895155
302.6565317
281.3130228
272.1676305
289.4448436
295.3400818
294.4096871
291.6593623
299.0219388
299.6873827
296.1646646
307.125636
306.7808575
312.2423521
303.1880693
302.9904334
296.0883644
294.9075852
302.1365314
312.8232468
280.5797862
285.4707693
282.517913
304.9893476
303.8220826
295.4579122
290.7005658
292.3358375
293.4134037
288.0709432
278.8381532
292.7286491
291.907751
288.6490501
277.7846166
284.2455715
279.4737635
308.3602263
307.888411
301.3855497
316.1036354
294.6865472
282.2926706
280.0866032
301.894877
313.8056953
312.9983156
307.0287954
303.740179
301.9582343
315.9930597
310.6485687
318.5189291
322.552716
323.8357778
324.3501644
323.2322514
301.4840405
287.9427559
302.7075557
316.5466403
319.8545089
316.062404
311.8376493
310.1632352
319.6270153
318.2774027
309.212884
305.1380625
303.9254283
290.0904341
299.7488007
289.0342456
289.4697606
281.717859
301.1577287
324.571102
317.8536553
321.8759022
314.2218464
304.0133125
301.292516
294.6883163
292.6992667
292.6367907
286.8039381
276.8475787
286.1236513
279.49058
294.0820962
303.0685635
288.4679973
293.7556012
306.6500171
294.639832
287.5948454
289.8692944
301.8804066
309.6198796
298.3631323
267.2827353
295.7676178
308.3592877
304.4224561
312.0375798
309.1492306
307.7185958
297.7948941
310.5611087
311.594398
313.6090149
328.6988203
312.7478118
306.9430904
307.5536719
285.6249426
278.5703952
274.5916803
281.3589645
281.4444028
295.0832039
279.1009874
291.3546788
296.7363122
295.5437332
292.2105494
307.7854964
290.2729045
301.8923225
302.924879
295.1714352
293.3800316
307.8643698
302.9580534
324.9336068
331.9282943
307.1765811
290.3549294
282.5989913
298.0338177
303.0873542
296.414919
290.3719545
285.3036332
288.3613423
274.9614686
276.3688118
278.6558431
278.2701817
280.4856279
290.07224
301.2362392
304.6991842
311.3495935
304.2592508
302.9016757
309.4925028
311.1227488
305.3070492
307.6994449
289.2177869
270.5283638
297.1088545
284.2806716
273.5526943
266.6787893
275.7949706
278.1662477
283.5250501
294.1973152
286.8418279
282.7487709
274.2868968
266.5390998
278.9789569
302.210426
304.697212
297.8819552
293.7696007
294.9063129
293.4469636
289.5964545
305.5228823
312.9620461
306.976653
302.2134818
295.4732078
294.7227238
294.240462
297.4125048
300.771199
322.8601687
310.8643593
312.8195169
333.2391701
318.0097402
293.4194847
298.1165141
300.8792213
294.3906245
337.9929102
320.6263557
293.9112084
279.190122
284.1243821
295.1004183
306.5560785
303.3244474
300.4020562
293.5533205
309.9455436
313.9163415
314.8115223
318.3388606
305.2213441
325.8679945
341.413499
338.2999869
333.060249
341.0867108
320.9088175
323.2020338
337.2423928
342.889179
328.0981354
336.3321563
332.0145092
315.4721844
321.8954991
313.7311574
323.3278245
304.3076767
318.0412276
314.3411068
332.129792
326.9074492
330.2942686
332.448151
322.6876314
319.3651826
296.1900492
301.8510097
297.7846044
287.8869088
317.595922
311.4159905
310.0617648
320.3198078
318.4869478
318.6103323
325.2602746
317.4674224
314.1065781
307.7128192
319.6227968
311.5172236
296.2386625
291.1429716
305.4592709
297.2672937
296.5076858
299.2030279
291.5026758
304.1830692
317.1593704
333.9080363
327.2431335
326.03541
313.1306771
306.2228258
304.3244032
296.1433024
283.3370959
283.3117215
291.2148863
287.556465
293.8250417
297.0940149
281.5380348
285.356374
289.6224185
279.1815422
286.2950042
286.0321776
279.375466
276.299267
293.5434793
287.9294704
297.7865521
309.6226876
305.5753831
308.515293
313.004092
306.4061405
281.3640141
284.4222199
288.4402907
290.6828591
299.7364661
287.6256432
297.0960095
294.2032204
300.7392545
297.5025264
289.6899174
297.5503993
305.7814863
308.6630264
323.5339789
316.3408087
303.2334372
292.9188949
292.749656
301.1159086
312.4448068
307.2762071
307.421758
307.9024038
307.7021697
290.88016
291.0796484
282.067056
286.0596351
297.1166461
288.5580655
275.483018
293.7493783
295.254063
300.3265056
315.113479
314.0116447
310.6251432
293.0691115
281.3946231
282.4617186
279.3746945
290.3246253
280.5550994
282.3625499
272.6058001
273.8199334
274.7464219
286.6288162
289.0867253
292.7783743
306.8545088
302.879263
304.7527721
295.6800778
284.6281186
290.2898007
289.497001
283.7198852
290.3006616
296.4062816
295.4281301
291.0584522
278.156451
293.2099253
280.8211307
302.4947082
307.8447222
308.1281666
299.8968613
307.8717169
300.6226562
314.5947847
304.7039434
293.5660102
299.6649694
301.8765737
294.0981005
282.750903
289.9145935
313.9799986
328.2569807
309.8474489
310.3416674
325.8280951
309.8034614
290.3004955
298.5439357
299.3029962
295.0062818
297.4582248
293.9457328
287.6020499
299.2585746
307.1401441
298.017463
306.9530278
296.4650451
293.9452617
295.6754433
291.2564909
292.4512366
292.8738945
307.8767025
280.7488178
281.1594592
330.3830149
320.6405111
312.8061286
298.8791948
310.7860886
298.3513985
298.8507591
297.6465799
304.8267647
302.3834054
293.2429844
297.8485282
311.209455
324.1927256
320.0503792
313.8690098
303.3452007
316.1151113
322.6420752
323.9434776
309.12128
304.5621952
309.8754628
293.1742308
305.428385
309.9431746
321.5631591
322.0229234
322.1504977
308.0004471
302.8487817
293.7635148
286.1695889
283.1900365
307.0308086
310.8425083
324.1495375
317.043241
312.5149703
309.314994
279.9892057
272.339337
294.4291277
303.4490228
304.1283598
301.4128233
295.0812598
301.154238
287.7093272
277.0607271
277.3452746
284.7461193
281.2340161
278.4328529
267.6849881
271.2707208
268.3588606
278.4262995
268.9788775
272.6913622
301.9862188
304.5650058
286.944287
293.2063485
294.0836989
304.2812685
310.778511
317.977285
307.9196844
300.0768516
301.4358054
279.0279539
280.154266
278.3169992
288.3498014
297.8636119
300.1078183
295.848374
305.378395
304.0044625
293.7870799
289.0929466
286.7162794
281.2370912
277.297895
282.0127964
271.4143016
279.5504673
268.1538787
261.553972
266.2415208
271.6679402
282.7874961
273.8748079
283.590992
298.7179985
301.9884293
304.289951
300.0746863
295.1774925
295.6481764
294.5465046
296.3519064
285.2309268
286.32261
295.2887372
302.9018292
304.1896706
299.5958132
287.2079038
295.7313917
306.6665113
316.9199521
312.5113523
299.1060681
281.4457735
284.7894871
282.1062841
292.3114821
302.0641646
307.8000397
308.5438109
313.331777
331.6301012
314.6866599
303.9400325
300.0599782
310.0939219
322.484786
316.9501677
306.8987015
293.5162323
279.7926747
282.3069826
278.2512971
268.4786154
291.5723128
291.2420734
299.9912726
303.1513223
310.8940656
317.619574
306.4053815
331.6690537
335.112085
329.5032725
317.0925124
316.5388137
299.2362218
308.4660481
317.1969997
299.3318287
314.5833441
302.5450646
299.4019612
312.8336212
279.9634376
281.9010314
298.2234388
303.7141387
325.7983504
318.8364103
336.9672712
315.3537277
292.0119361
295.1098646
309.1783137
309.6412283
317.7145451
311.048909
289.2113573
291.2026255
293.9784921
315.4089442
318.3262517
325.2777928
321.3528255
310.4993189
316.5920956
323.5869701
291.3695808
289.5782244
305.9210561
315.6655449
308.5249888
297.9926375
295.4690542
274.7151198
275.2569551
286.2148378
299.5988089
311.5977089
320.3807856
323.1438452
312.1618889
306.1357916
303.1997605
307.7214936
304.4483753
296.8409479
281.0504591
302.1091227
293.8950767
292.1622317
278.9648136
291.1658468
282.9933353
303.5160101
293.7167164
286.5096157
277.1843294
292.5329249
292.0917325
290.7101581
297.2130406
289.219105
291.9002398
294.0970128
292.1189946
289.1043902
294.941402
302.2019927
316.4588074
318.9585614
310.245816
320.5264328
317.6016183
306.4022279
288.0893054
289.6663493
298.6299027
299.8070032
300.4746305
306.1731797
302.5651232
297.0407821
299.7903984
288.8022245
293.9998609
311.6282007
307.4912237
302.5098364
299.6714989
295.7770732
293.7459085
291.5832919
284.8624373
285.3058562
275.3916594
261.5139309
269.6925635
274.9503345
287.4987441
288.8168768
297.4055181
292.23255
286.411589
284.043997
296.902644
312.4558435
313.6216998
314.5463946
297.6165323
313.4727097
318.2888106
304.6731704
288.068676
284.5402339
278.4161475
293.0877652
290.9701175
285.1470586
277.944515
273.9474929
287.8319264
284.403493
281.558991
296.543828
305.3094587
305.1103564
314.4288877
317.8704936
315.9319454
308.8824479
279.8767218
285.4737393
284.8932041
284.3532094
285.8819213
276.8992581
271.9544215
279.2566904
292.6976176
292.5494801
283.8144814
285.8582024
305.8804002
293.858868
298.5802638
311.9075022
285.7947548
275.8514264
272.9861727
288.6666138
287.4552196
296.7185127
293.8022788
293.2475687
302.1822401
317.7892544
308.5114404
313.1865217
305.0872263
296.093218
304.1295291
300.8808801
298.1384851
294.2865115
277.7709294
272.2732533
310.0882664
301.0237832
303.6837016
316.7209646
311.946069
304.926033
293.5171314
278.48711
277.8757435
282.5979031
286.6055562
305.3134604
306.1542837
306.3215446
307.0575511
317.7165982
312.900628
313.2950231
322.5787871
312.2092784
292.7204644
295.5155265
305.477155
308.4622104
291.3809225
290.609927
305.8450104
300.3132789
302.1352682
286.1217471
282.8480957
296.4841583
296.6331433
289.7348635
302.7105882
300.6906406
308.3432663
301.4823494
289.2420761
292.7561873
309.4040705
298.9785516
293.5126156
294.4866381
303.5293027
304.0976621
290.4900061
273.9828894
269.1877382
282.4094161
304.6246816
312.1360627
299.2097636
294.109774
296.2247405
282.1537835
286.0587403
288.0835649
293.307812
306.836238
281.0123474
303.1785963
298.3739136
305.6733174
305.3033905
297.5166696
286.6549333
277.8221611
287.7794372
289.8136205
277.0145384
283.2558691
291.804554
300.7407255
297.8525359
298.6964825
303.8040036
293.8041134
286.4702716
281.2989072
303.2600522
308.8250108
310.5675523
304.7167216
312.7709674
302.2820597
293.6616311
294.4708113
295.8700439
305.1659591
304.4429832
290.2420293
287.2954991
292.0904103
291.4890753
296.3513006
280.3235421
271.1202801
278.8981783
294.7386202
306.2647205
313.4860013
319.7142056
319.9648475
323.6871208
337.92659
326.3485001
316.4231875
323.8637654
324.0527652
336.7153379
336.5871416
325.4941063
326.4858224
311.7458435
302.5983664
288.810784
311.3208571
322.1676437
316.4420624
280.7192686
288.6824378
291.4336671
300.636081
289.2173629
283.1916697
285.6431686
284.891104
271.8925145
284.8058288
281.9837625
285.8367633
289.1031041
302.0356908
309.621331
299.0794295
306.8421039
298.9527703
292.3570491
274.8464327
306.9974915
315.299779
294.3107923
282.6319079
302.613668
302.1469362
301.1828701
307.6384402
289.2552466
294.2185258
295.4499101
283.9555623
263.557839
277.2595247
281.0288402
301.6047451
304.5149287
312.4001918
312.0987755
305.4598841
307.5994304
306.0874993
292.8641071
291.2968131
285.0451026
298.0278974
283.0647509
282.6266369
307.4213529
315.482659
320.2547536
309.4427977
329.226807
306.025665
312.862926
313.759452
337.3942245
322.6144106
320.2709771
320.857313
303.2632874
295.5896474
302.1356599
301.3409382
317.4900878
298.1271703
295.5256371
290.3777304
294.7312247
283.2734933
298.2353019
305.3384906
300.9738157
288.5423676
296.4801495
304.7420961
307.3509084
298.9883817
305.7689706
311.9484709
264.1016012
265.3464562
293.9187367
294.443802
296.2225231
292.5714482
282.3970404
276.3616463
267.450668
282.3516905
298.2749684
287.6082696
291.1318076
286.7451009
301.633288
290.0308481
287.0903673
283.8508796
273.7135178
276.7814587
274.5871128
275.2958056
282.6975453
291.1477597
280.1454298
280.1256407
266.0628458
286.2077498
295.0714661
296.7698508
282.0592216
282.2694894
265.7726352
286.5348146
287.7349921
287.4162802
288.6657048
304.5628491
286.6764641
266.0012467
293.345422
284.0098944
273.8059558
274.2596766
277.8527683
277.8679734
294.0921188
291.0452467
276.8885661
264.9235322
277.3198952
290.9830066
301.4471575
313.0020173
313.5562444
314.6373492
289.6727185
288.4458692
279.5080127
282.79039
299.8917276
296.9790737
282.0175866
277.5245487
285.5207721
287.6686851
283.0916004
305.1984599
321.1188475
313.9338588
289.4513199
294.1850677
307.6062982
315.1934517
318.2445707
307.8182684
310.8946884
309.2573533
297.5227914
298.7947194
314.5685343
314.5164467
311.1068186
309.6703633
326.0801208
346.2252235
327.290477
327.3493578
318.0755043
316.4963856
313.4516345
318.2094809
302.3182314
296.2978076
304.3767807
315.9896102
317.4089316
322.370981
328.6317484
318.4243302
281.9716745
287.287366
293.4755893
290.6683243
294.1100852
283.782554
289.1671915
295.1097781
292.6024495
284.1897589
296.9724874
291.6479829
308.4449796
320.8185515
317.3946719
316.4720186
317.7591288
315.5634639
296.494422
294.3897464
319.9692415
312.507156
298.3740654
297.0304228
297.690906
302.0502937
329.1425571
322.6682005
330.3741761
331.8327657
320.30062
315.8333563
301.4277166
318.0654189
313.9325173
307.8180597
303.3239056
304.9920301
336.5357552
324.8994982
285.8428261
301.129981
300.6029843
310.9580581
326.8703901
341.1473875
331.4485701
320.611852
321.4741679
313.2558372
318.5674307
312.4926959
324.9844605
309.8666045
317.3412057
321.6001706
326.0172132
322.4259829
305.5281989
298.533627
328.4011863
325.8644987
325.7474673
311.0419667
294.8870765
283.4919241
295.2115061
309.4769994
330.6105382
299.925941
305.3520345
316.4753814
322.4520482
317.9608796
308.6929392
295.85916
297.764918
306.7872275
316.5549328
312.0032929
309.8285591
305.2334819
295.1978701
302.0967704
301.9883701
295.462471
288.0972243
288.7504494
293.7334964
316.0165674
316.980379
309.3432263
303.7079873
291.2156603
295.7538535
286.3120563
289.9429151
303.847979
324.7123808
315.0214941
295.290781
294.7423193
312.6833283
322.9106902
313.5039132
300.1862484
314.8976009
312.667683
320.4414029
294.4746726
289.0734
293.6867888
286.1215645
288.4728083
309.5632421
315.971097
315.8737554
309.8252733
294.92862
304.6167584
307.9481753
309.2308922
305.8653066
307.3087646
313.465555
307.5682016
303.4466501
289.2893724
282.0164299
279.784226
276.1657323
281.9946003
297.8810261
310.4967175
302.3777018
296.6575584
300.131496
310.8382538
318.7846153
313.5010187
309.1129817
311.4359508
307.3953937
303.0753399
292.7826246
298.9545866
287.9301265
294.7183485
328.9892921
317.0362811
300.724713
301.3669164
304.4756772
300.7509037
300.0301727
318.7834309
306.5444241
296.8080306
298.0766815
309.5758627
307.2402384
307.1456995
300.9696764
298.3494124
298.4841516
315.5207975
328.5586275
326.7173068
308.1011148
301.3472735
295.2033231
298.1540365
286.6407637
276.3360276
273.9154895
276.1258902
278.3437237
298.3052095
311.7589713
305.0315394
318.2627106
307.9827983
299.6601989
301.9739411
303.0141923
307.8416041
294.4595263
288.897395
293.9542671
291.9861889
304.9343976
313.932269
305.2847975
308.0500649
302.1158022
291.584854
299.3617939
299.2349477
292.9843286
307.4911452
311.3525334
300.4718826
300.8979097
290.9428427
290.8248299
298.5059673
288.3274749
283.088364
299.5677909
307.840511
316.5430506
323.2262042
322.6782013
335.554673
322.6987582
331.043492
325.7135269
315.1046798
329.8513515
312.142283
299.6249357
295.2054576
277.8328227
270.2054702
284.0385973
288.1475997
282.924012
275.3974809
272.8899017
271.5785075
285.233812
274.3856728
273.0418504
282.1656763
284.5673662
280.6188569
284.7952538
292.3813494
294.5322707
297.2292429
281.9829759
288.4810964
297.5071213
288.364284
283.5117494
287.5810354
286.6920832
285.9204766
294.3131428
284.5662663
291.1798698
292.7145186
279.0289408
273.8894791
258.2983487
267.196758
287.2465715
279.8162089
282.2026982
273.4907744
298.6953173
285.9961656
270.7086731
258.4398861
275.8781793
272.3714868
286.5381036
294.3106531
288.7870282
288.4446428
271.3376839
287.0682732
296.2699773
300.5103526
301.6473833
289.7443884
277.6477254
291.5100406
287.2254231
304.1443427
290.0789437
307.8500831
324.2946213
324.0767422
314.8246373
307.7399367
325.9642988
327.9913855
310.5115377
316.8868882
306.2939614
297.2995885
285.9977137
286.1890629
278.7033937
289.0118709
307.9299325
297.6219801
305.0334636
296.0485826
327.0285573
311.2095365
309.1811399
289.5788208
296.0202663
281.4634369
279.0484394
285.7941506
293.4390147
297.647016
313.0163745
304.4152155
314.2031716
324.870321
319.0235513
312.623491
317.9855483
328.5519817
308.8663319
313.0655085
285.2884567
297.7554066
286.1743828
288.7596472
284.7362222
290.3765735
295.3301078
288.2716372
288.9825917
293.3933008
296.3271496
300.5598859
292.0651316
298.5703983
303.1013731
299.2666326
306.2338668
303.2272663
303.3765863
307.9356424
313.8245392
306.5860454
314.0664035
326.2128024
308.0316752
303.2244086
299.6716755
301.1498375
296.5169756
317.4120098
306.1303713
304.506342
296.6999446
293.6740773
282.231692
276.6310978
279.3603282
288.0968575
286.7711591
301.7918972
307.0817177
308.3853816
319.9886553
313.9320414
332.0994736
316.5927676
305.3587183
304.8329064
298.0134848
291.616996
302.4144297
317.2492616
313.8178558
330.1236508
325.4255805
320.7169518
321.4791065
309.9901649
300.8108378
307.3555091
303.4608988
304.3007619
294.6758438
305.0103429
301.2614501
310.672919
323.6276281
312.0197211
312.8111256
318.5828335
307.7666363
301.6831304
287.6768014
294.9655474
304.3116922
321.5661787
307.9348751
317.5648428
298.2269082
287.9205729
283.7214621
260.1225192
279.4697914
279.5720675
295.1914
303.1472008
300.0348086
315.4189797
314.3557272
311.1464279
296.5513041
305.4233741
308.2249106
302.8576551
293.1818223
304.4093284
294.1196132
300.0396113
288.2412518
291.2789496
318.6457175
323.8931861
327.2253297
301.8887508
298.705744
305.4507746
305.702036
299.4062666
303.8552657
305.5164204
317.2384468
298.7103064