/*--------------------------------*- C++ -*----------------------------------*\
| =========                 |                                                 |
| \\      /  F ield         | OpenFOAM: The Open Source CFD Toolbox           |
|  \\    /   O peration     | Version:  2.4.0-MNF                             |
|   \\  /    A nd           | Web:      www.OpenFOAM.org                      |
|    \\/     M anipulation  |                                                 |
\*---------------------------------------------------------------------------*/
FoamFile
{
    version     2.0;
    format      ascii;
    class       volScalarField;
    location    "0.0007";
    object      rotationalT_mixture;
}
// * * * * * * * * * * * * * * * * * * * * * * * * * * * * * * * * * * * * * //

dimensions      [0 0 0 1 0 0 0];

internalField   nonuniform List<scalar> 
5120
(
312.9368038
336.4817898
318.7984758
311.0304571
301.6507056
292.2788502
287.2100683
297.0629818
291.5912647
291.7278025
300.7537914
296.2521796
290.0751259
292.2640358
299.8752873
302.94131
295.2764541
306.5346209
287.1838908
296.7876949
288.577047
285.9446195
287.5548972
272.2353166
279.202457
288.4302618
296.7772604
295.4200219
293.6341848
291.0548694
306.6537023
304.0483275
319.6868936
325.2389425
325.4685974
313.3065459
312.3059499
310.4948977
305.0214848
292.9939754
272.0641817
282.829155
288.3649503
297.2459027
299.4098194
313.0228892
308.9007983
304.1503733
311.1889374
303.5640334
295.3310515
292.996983
298.1118733
305.4083829
303.3208574
299.1772552
311.490304
293.8118997
295.8845558
288.4147854
304.376162
279.7685945
291.4314589
293.2414268
290.4184289
281.7006683
276.2814673
301.6300673
310.2097283
315.2098732
317.212918
322.281248
308.7844038
298.7555381
292.9870744
295.0291318
294.3395638
310.1836134
306.9187804
303.787293
295.5033641
300.5915394
301.4233481
293.6081644
288.1064952
283.9764038
288.8091051
299.4029506
297.2680408
299.9703086
295.4579877
280.0662271
277.2302399
288.4177867
298.1337976
307.1490348
306.2595863
290.3221135
298.1502408
292.0406646
279.6317231
302.3042846
309.2563873
306.4632035
304.284851
307.884823
299.6679061
306.2309303
304.1757106
303.5278433
293.7224016
287.662555
288.6007949
287.511089
301.1609644
305.5999179
304.9012706
297.2589425
300.686353
291.0718909
318.9374859
314.2899308
312.5604188
306.2842694
298.7733989
299.1131827
302.6706317
284.33263
276.8432536
283.3697488
288.8041104
302.9644745
306.6016076
303.7898678
294.0608345
283.2990177
299.1958698
310.5007057
299.8065349
305.208734
277.7692888
271.3410232
267.8618925
290.3172833
300.8813095
308.7643813
311.7312235
303.5022395
312.2579079
302.9707022
296.5830731
283.2389423
286.0268823
286.6834137
296.3166048
300.9535452
291.5187113
298.4472219
288.9622773
295.1805998
316.6619064
294.3869745
286.3709164
272.3057153
276.7634631
277.7559239
288.4439982
296.1428009
296.083978
296.8045513
291.8658377
282.7007014
284.7051385
282.4254129
281.3932531
296.2105749
293.0387098
291.7542645
302.2973353
305.0853709
299.612054
313.0320411
315.9492394
309.4776073
332.8285105
327.3873881
309.3580667
299.0428559
303.1068762
309.465108
309.514219
311.2384616
304.3379574
315.2365142
337.5918895
340.3921551
328.3107267
323.8598134
312.2619278
297.1798783
310.8049393
310.6895548
302.1368086
307.2134767
296.4846138
310.6276782
318.6986107
332.9351278
336.0347236
336.5904152
329.5935661
321.8482572
336.2897116
329.5494031
319.941446
313.0424592
326.9343947
323.8764345
316.7667388
308.8409118
297.0610805
296.7072203
300.8405358
297.2716455
298.0088382
319.581899
303.9582964
308.1301088
311.6280106
309.9935667
322.1047284
323.0978258
321.4335379
324.3735573
325.4883265
294.2383609
288.8787045
293.3491805
308.788457
294.1349134
300.51706
293.122545
284.8684551
301.7200479
299.6901209
295.0841334
314.1319974
306.6360851
300.8418866
301.3692247
287.8049822
298.0952434
308.5749674
303.1132518
305.9878849
310.9530335
317.6014582
316.913478
317.3021399
323.6046247
311.8197521
308.5371471
306.5009204
304.1252546
290.2634511
302.0686167
303.3746141
289.5262803
280.0186529
295.0301456
309.0238689
325.7411855
313.423157
300.2034057
295.7405039
294.2955709
284.5814286
299.6528257
291.8533738
285.2208446
295.0606184
292.1792538
289.2867503
293.4955558
304.4484171
303.2275556
314.0854975
321.3190457
317.0898442
300.2330334
299.816865
296.9169047
293.7916411
299.3898833
310.3965385
305.2060512
312.9546711
305.467873
305.4456609
298.3512888
280.3610149
295.5113337
315.4090804
317.1987828
320.6815287
309.9727925
308.7097673
305.7767275
305.8735196
325.1594107
319.7779501
329.2201124
317.5064372
309.2548085
283.2364855
282.7289996
279.0463897
272.8903308
262.1666824
261.0273212
295.9284385
278.4945456
283.6621762
295.5383074
309.2986473
317.2116332
318.1607272
285.674314
307.0528105
305.6067238
308.7422526
309.6829937
312.8321009
302.243435
316.2315195
305.9820398
300.796317
315.3778726
304.1530899
317.8667422
305.4231125
312.5352271
313.4814273
301.5779543
295.577215
308.320808
295.4385254
315.0655627
309.1044478
315.2746174
318.4790666
315.951179
320.0091918
309.4410078
300.8031821
310.0560548
309.2998816
303.4009525
299.5299213
313.3712921
280.6208765
275.7714417
256.8499632
255.7978015
263.7510121
265.4834358
283.2349351
275.9836284
284.4591275
280.5622356
277.3521141
293.2039536
285.8909383
287.0877268
293.808839
288.3750069
285.3579843
278.565737
282.6334383
275.6009087
298.7227879
310.4200966
309.2070811
318.5221236
313.8916836
289.4868534
286.37363
283.3412382
269.4679209
287.2733761
282.6370075
293.8664421
299.2850055
295.9280891
301.489141
297.4454651
287.447075
286.9753294
286.6197965
299.5750121
309.8654522
305.0283128
310.9429081
306.7496251
315.3967529
328.8491192
316.1351137
301.4138822
293.9422354
296.0471528
291.3844326
286.0445916
282.2557998
281.6361784
277.2826417
288.3067718
295.9396869
302.4570325
315.4697881
313.3480612
316.0120473
296.5044641
300.5904616
316.5874286
304.5179374
297.8863881
314.6059912
315.3134803
297.4658961
290.6220471
290.8008344
292.8742308
291.3471173
292.2234426
281.2623439
284.0482472
277.6909536
281.7644652
297.0634627
303.825752
299.0098433
316.9120051
311.2391059
323.9185334
309.0122239
301.8017337
284.4277329
289.8638994
295.0811871
308.5318056
325.4237523
317.0153851
318.8232973
316.0986108
328.3065611
326.6189204
322.0475753
306.3613732
290.8562353
286.8749825
281.5845733
273.0045752
276.4164484
277.995634
292.2874969
295.8109667
296.3716937
296.2363431
284.4324752
291.4553855
292.4232221
309.2407562
299.1123081
296.7348086
290.6062425
284.7041805
291.2320134
285.7729001
293.5541115
283.2697215
277.6125696
299.9754462
298.4528849
291.0069872
282.0566811
282.157844
281.7990857
296.3609893
298.4361427
315.2252058
326.2093761
311.1574447
307.8430855
303.6514145
304.5789532
305.3118454
294.6018942
296.4051339
285.3801327
273.1006932
321.0544983
315.8781317
323.5670261
330.8966835
314.3530588
298.2739319
293.2767762
289.8065198
288.9317202
288.2760119
301.8541149
293.7992131
309.5127943
291.3856651
284.220809
282.5698858
297.2678092
290.5078929
309.4888426
315.2134447
295.9711068
288.5028306
285.2566224
294.7220059
301.4702439
311.6239394
306.7569858
324.8267462
341.6700178
320.7520382
329.2144605
313.1967048
304.3912479
305.6320124
300.9946049
307.8790218
301.2705795
316.5626013
317.7139945
313.893432
333.316024
328.5542425
311.2510361
301.4490189
320.0191956
312.7138244
311.2871642
301.9552321
293.1085775
296.5631882
312.97775
322.3009503
315.2940038
295.2564632
304.7203563
320.7979915
321.2236307
312.7023355
307.9162061
318.5302543
307.6978042
305.5005165
316.7737251
302.8340794
301.0818388
300.7444819
297.8391844
292.6038392
294.7770708
299.8555452
302.0969546
314.2563084
310.9628781
307.9009084
295.8555034
296.3258859
301.3599441
295.6420714
309.4029686
302.068092
289.7011501
292.4457659
302.4224319
300.7027903
282.1737142
278.6362895
278.503502
295.8525024
309.1458895
305.5478694
294.4012116
292.5543861
303.4157797
303.8830365
312.1524933
312.2556538
317.9784826
298.0228003
289.110187
279.3956716
319.0162103
313.6217065
292.700288
308.5193771
302.9786433
301.6498662
307.6103866
295.8997112
294.6408802
303.9411962
295.3208639
294.559223
310.8363637
331.534166
322.0656124
314.6734091
318.2134152
325.3996823
315.4949624
316.7170944
326.6957023
350.934634
341.6112697
334.1784028
334.8883882
316.2497267
311.6098625
321.7984562
313.4982316
310.310555
309.8407855
292.1209037
295.7178259
282.5574452
285.6477294
278.7593501
288.7057896
299.8514866
305.4935134
316.9082677
299.8218447
308.4995526
306.4350992
303.0831575
304.6559527
304.8948729
308.2429067
310.6746999
306.6125701
314.2682447
307.6393074
290.1662114
295.7956225
296.4296282
300.7489684
308.2585333
305.9565668
286.8797457
284.8313181
286.510791
324.9635453
312.8054905
317.3955822
322.7288596
327.1564867
336.6498632
331.9709543
313.4058437
309.0164345
297.4907119
281.2713749
284.5176258
298.8140396
301.3620258
296.8559267
299.1973944
319.5806349
332.2540343
320.2959224
313.4351938
301.831188
291.8061198
298.9003372
299.9124442
293.0456464
289.4045044
285.0126172
294.9177272
296.2117335
307.4627946
305.6675706
299.8970085
310.0538596
314.2887585
321.1062284
333.790431
315.3938394
326.0321074
321.7663785
305.7129472
318.1497333
326.4534208
335.1404059
315.0177072
309.278497
305.6195637
310.7575598
315.2845631
320.0723205
309.2648877
304.5141031
294.7716441
298.2246114
292.5619092
299.9913729
298.9253981
314.3740495
320.3217186
304.1724361
306.9859886
286.2097483
290.1416495
296.9310722
291.3496262
282.4617259
269.7614174
266.6549176
278.6362311
291.3756317
297.09066
302.2171583
304.7321086
296.3263676
294.7548159
295.8579001
300.0813281
298.8862939
296.7028671
297.4288325
285.0552903
298.8704938
293.721942
278.734363
292.4957528
292.3222485
287.9004961
277.0222864
267.342504
264.6359167
275.0992457
285.9796429
286.5398069
293.2765568
305.1213193
307.3445669
298.0135249
307.1803864
295.2527315
310.1403601
306.8723418
304.9961365
302.1765838
306.0217946
288.6390813
278.2105548
291.224484
300.7297472
321.1935955
328.9809813
322.6228266
309.9150864
306.7949451
296.2614082
273.9242318
304.5875401
319.3157443
306.4275958
313.1074668
299.7488101
302.5439868
311.1659754
310.1496749
291.195639
292.2216371
296.28203
303.0802756
309.5333248
305.4965886
293.4667882
285.5101014
290.8573406
286.2435052
286.734888
282.7822142
282.4607934
289.3723732
288.7009988
304.4606501
307.5387535
303.9705709
279.5677551
278.2002493
274.4335668
265.2157958
264.0143259
273.0287059
284.0182555
279.1972433
279.7091341
297.1530985
296.6335841
313.7640064
309.806521
298.1826641
300.176289
292.2802067
296.3082791
291.2660024
281.2490427
276.2601796
285.8501805
293.3030589
296.6119155
296.8227203
294.6830885
313.0055704
312.5772054
327.0529849
326.9937211
325.1147285
304.0792523
305.290343
305.2852659
312.2346958
303.0669621
293.5284279
290.0643623
287.8606999
282.4811196
276.4260714
294.9365536
305.5207345
310.6286862
312.2018404
314.5735296
316.6513083
317.5649731
305.5828605
294.1305749
284.573055
268.833219
259.9746017
275.8682193
281.3414091
285.7911904
289.422927
289.9582066
300.1184552
308.9982316
307.6240507
293.9911421
308.826044
304.4152464
309.1506157
305.7377416
304.3445599
303.8927282
300.3359632
309.9386781
301.6524388
320.7810898
316.0231356
317.6427554
323.2896993
296.8734213
302.5541155
299.9131627
289.3186597
285.9817258
281.8761076
309.0524116
298.8366388
288.1033625
286.3485854
287.2135973
285.7489242
302.6218207
307.3298179
309.957129
310.7697023
309.8237929
296.8993588
291.6564041
294.74141
295.1233114
306.0593511
305.4082004
307.9878183
319.9779599
311.9275479
303.7106365
306.4606841
315.2928003
317.6976229
325.0415403
318.951804
293.843082
295.6380057
302.6209901
310.8616904
325.7557037
310.5249741
319.6756098
320.4146545
316.6186617
312.2282567
306.7470072
300.95621
319.0184369
303.3274049
301.5553227
311.5917394
315.8497202
302.7545019
303.6366729
316.3926378
315.0078123
314.5769965
308.9221199
312.2191523
316.2997018
316.9352881
310.9639046
308.7442398
306.6545497
323.4220782
319.6162165
317.382451
311.0614475
314.1149011
295.0853846
293.6396956
300.6853505
309.414639
299.6120508
305.8083449
302.6278954
298.7802286
294.4683066
302.2642022
304.23063
314.8815106
314.5588375
312.4669859
316.4796775
316.5757236
303.0696666
315.7826552
316.2488931
296.7560061
316.0819045
295.0309535
292.8171083
300.3122827
291.2778674
282.5328044
284.4948886
301.433444
302.8114012
302.3813026
298.6211123
306.2933581
302.7232137
316.3783779
317.5622365
305.5657569
303.3043423
312.3095541
309.5226368
314.0763796
300.6832917
314.2376984
316.6137182
317.1121504
313.256438
309.3442173
313.070931
323.8968281
318.3393513
326.1133454
330.6361379
314.9689446
322.239235
305.2069843
303.5286404
311.6932972
311.8965702
305.3463166
297.2584962
298.1826104
325.757839
312.0088311
291.1811461
279.9623556
295.8637623
296.8830941
299.2666722
298.4441766
307.4193493
304.373706
305.8228101
316.7971749
314.1282108
321.4621701
311.4854642
306.6821971
301.8785554
296.3965592
309.0122638
318.9189034
285.0234086
286.3121634
280.7411161
297.4580839
299.7110592
299.1231348
296.6198557
304.2615875
296.8155897
286.3472854
283.2383035
295.6140462
295.7689239
292.8028591
283.7756356
288.1203848
284.6341528
306.2323757
302.2040338
301.8035742
318.4810148
299.8796117
287.2250679
291.5345065
310.1151779
316.6935593
313.6694753
308.760954
311.1615087
305.5040439
316.7138012
310.8060013
318.000186
324.0979973
327.6495796
332.5922948
324.6563107
306.5596676
295.4491602
307.0032438
316.8882524
324.2541508
316.5362903
313.260653
315.0393108
322.7410655
316.104836
307.0110568
301.6676673
301.4602941
287.864992
301.738301
287.1268224
290.2396764
286.9026716
298.9082539
315.7677546
313.0654958
321.180064
310.4433718
305.5441484
303.8231847
295.5563823
296.8677945
299.7526921
292.4351575
285.0485866
297.2812729
291.0087625
302.7764168
308.2306195
289.3919142
290.2004112
297.37904
285.2601601
286.3211903
289.6099796
299.0674967
302.3785812
299.8973602
276.3971597
298.9187171
311.6980675
310.8016437
315.835258
309.8975123
309.2426377
303.4682871
308.2028806
307.1883971
313.9395552
329.4522111
318.0095814
304.6817868
308.4370256
296.3593354
291.3790185
286.5035335
286.845074
285.3314581
302.1345593
285.9001668
300.8531993
299.4211953
294.8764349
288.2715644
298.8486817
283.5800969
302.2856509
294.4864131
297.4031525
293.7855472
313.4289689
316.2410241
329.9219264
335.2210496
317.298753
300.0892821
296.4475766
306.926248
310.076713
306.0710055
297.094689
299.6441309
296.7425293
281.7822354
282.7202746
282.1404981
281.3121959
295.4306472
297.125771
308.455686
307.729303
307.1141979
299.8481641
301.3348914
300.6528463
301.7252749
306.3052327
309.7274244
298.2155214
279.5070783
298.9626035
288.6008935
279.2800467
269.9163883
276.3075882
282.2690476
289.2535721
296.6404611
296.9350688
294.9445402
283.1317271
277.32823
286.1289419
302.6575015
301.4227066
289.3403801
291.3352153
299.9037943
296.2920162
297.6107167
304.8535415
309.9545215
303.5490083
299.1091182
293.9729216
293.3712306
296.9482933
303.5576042
300.3910648
314.9763789
309.8029288
310.7151029
324.7762905
313.4775862
298.3616704
305.3599717
302.5473121
296.4374429
327.7369337
315.6357042
295.6697368
284.1294782
290.9400677
305.0535957
320.9065978
313.5619243
305.9786305
295.2305131
314.7118136
320.4558573
323.0291342
315.6098075
300.0778953
322.8601403
338.1540612
340.382652
334.3631679
338.8172133
314.809104
323.7251429
339.1118878
342.2157845
327.0372618
329.5625792
318.872662
307.5427275
317.7225987
315.5489008
323.387242
311.2968715
315.4103597
312.6918295
326.5701979
317.3032332
323.0907226
322.5017053
314.0847553
318.0148401
295.9575994
296.7969488
289.647531
276.672076
300.4026982
293.1903499
302.3918341
313.0867267
312.192152
314.9037721
320.1654693
317.1284718
317.3366562
316.3062403
322.0870961
319.6018514
309.6143303
301.3006334
311.9868953
300.555689
305.5444812
305.4268122
299.9473905
312.462561
317.7589862
330.4737714
320.8727502
319.1604253
319.5486479
310.4312955
302.9695417
297.2777979
286.2449867
286.8775877
294.0114048
286.5626496
294.7764873
301.4736471
292.4158419
295.3628642
294.630343
282.6645153
285.2866541
283.9403212
284.1529822
287.8289058
298.1425311
297.7480646
307.0434568
315.089402
314.0796823
312.3389764
316.5150383
307.382662
287.5337783
294.1085878
292.6973523
291.4820909
296.0767714
289.3796459
301.6562592
298.2079866
302.0332463
293.4633852
290.0428693
303.0039322
322.8122025
332.6571952
340.823692
331.4298936
312.1620884
296.038638
300.7467382
302.2282851
310.8658134
297.5484198
301.6674389
301.8317397
301.1655663
287.408602
299.4674498
292.2056262
294.9953681
302.0584482
292.8349315
285.3254754
296.5541762
300.9467957
307.6604098
320.5934072
313.9089291
310.71016
298.5391505
287.4643493
284.7316504
286.2851403
294.7004376
291.8696986
290.2943005
280.8929027
275.9867918
275.1466296
282.5062434
292.024231
292.4089439
308.9178944
303.1509198
296.3568517
294.4583146
290.6233076
293.3433488
293.5405729
287.4233651
297.1570596
299.3005992
294.0341849
290.1646122
278.3974722
291.0480077
282.3520496
300.9250996
305.9743576
305.4224972
298.0794871
304.4097151
294.995536
303.8914535
300.7421445
293.0122805
302.5102554
304.5571421
296.3912421
290.7030003
287.5273755
305.0366663
311.405054
301.8304691
300.8857457
318.7489727
299.3275169
296.843917
304.6433808
306.9523357
301.5325471
306.0871217
303.2032894
298.5510087
303.0236876
315.4016484
304.4820527
306.838337
298.3378279
301.9048892
292.3956972
291.3932153
288.5714419
293.8331508
306.7854665
282.4416717
289.4184329
316.9529634
316.0855453
308.7324265
293.7583371
298.2551708
290.8448941
295.0869759
299.1983535
304.7630413
307.1199374
304.1406363
306.2056831
318.5218403
329.2309883
315.5848327
300.335912
290.5109027
303.5858686
310.5232587
305.3293172
301.43903
295.8554475
302.8979632
289.8484245
298.119827
308.2545434
316.9554278
314.2504495
316.3401173
308.7273532
298.7885312
295.2288174
287.6831797
290.6841587
299.8757013
309.6558976
319.7282187
312.3488047
305.0061704
307.9973865
280.992861
274.0638589
293.2581438
304.0992717
306.6244171
313.3843982
310.5989876
313.0054106
298.7130842
296.3568336
298.6558599
298.5795195
292.3219337
277.7677898
268.2724979
272.9161493
268.0383878
279.8809467
269.6704111
270.6313751
304.8384369
311.4629263
298.3497424
303.6303917
304.1972718
303.5045449
312.1527103
316.1551087
297.409805
287.2286657
291.7043234
274.8096916
276.0067679
277.4772559
282.7662831
296.3729985
301.290078
298.6155088
315.0820985
308.6154538
293.8211981
289.7897701
290.3617113
287.4881224
285.9687904
299.3381488
280.2830947
286.5785023
277.5022935
270.1798333
271.9725873
282.4346095
292.518294
285.5612537
283.8208516
304.103402
305.5292487
305.8210995
300.2773193
289.3249118
295.2476999
294.7581636
298.0125937
283.622414
285.8876015
296.6042734
306.771313
300.1359762
290.3431812
284.1270239
289.4559553
293.4934613
302.5159699
301.5884665
294.7698161
275.0163793
281.2355506
280.7967549
287.501211
297.8651687
305.3496565
308.4968532
314.6442455
329.1768292
311.9346628
308.0114913
305.30893
311.2357299
321.5794641
319.1708406
302.7797056
291.0242966
280.6591238
287.8503578
290.8481242
277.4983301
291.2994231
286.6197752
298.4933275
302.2717397
307.1920322
307.4753341
300.2739859
316.8713273
321.856111
319.458951
310.991186
305.3682972
292.2069264
300.7657834
311.479447
296.2048324
314.6718557
311.345534
302.2557016
312.7397204
279.7958622
279.8385027
293.5867536
298.2960304
324.2468
315.8175374
329.7238919
320.3578463
300.5977683
303.1631711
311.5700843
309.0286493
306.1060851
300.9045494
283.1285898
291.9985121
292.3329803
308.856937
307.6514452
313.0419221
311.9664702
302.6002168
307.7622452
316.3780753
283.8815666
286.7855589
297.5011017
310.3201785
305.7085426
297.1285695
294.2492926
276.0196728
268.5648537
278.882918
296.6805753
306.1767119
315.9702247
313.2236233
306.2077446
300.952878
302.2300126
303.6434764
296.3106969
292.6648989
286.1570064
301.0291545
295.8804352
299.6846175
287.4889397
288.8591453
287.1668775
308.2772239
298.5780313
293.7853254
282.8367023
288.670899
293.497281
299.777727
305.5559346
290.3919062
292.0147372
295.1897177
297.0904511
299.9171558
300.4647893
305.5064057
325.0589334
325.1609547
320.5945236
320.9265928
309.3160149
297.4085947
285.9328633
294.0362498
299.9482552
295.2812284
301.017895
302.2767188
299.3688105
296.7951817
306.1710022
297.7674864
302.5174219
311.4266035
315.542799
308.3256381
303.5472165
301.3605795
298.9021969
296.0678002
291.5245537
295.0003261
280.2363917
261.5787247
268.5611468
277.0770862
284.4623403
284.8455223
289.8821982
289.1108069
283.4778267
290.1671537
306.0911178
313.1898439
310.7019483
321.8733268
306.1490021
321.5006268
323.1759914
306.0225116
287.3766437
286.9117711
285.5854322
292.1693123
294.1035954
289.3360147
291.3812685
290.3505543
296.1951204
293.276556
285.8655996
301.8325405
309.0327785
312.4468589
308.6688199
310.6902746
307.2819199
296.8377085
275.2437617
284.1092895
288.1584793
287.7179036
287.8256199
277.4144223
276.6017734
285.9609517
298.2215228
298.3633953
296.5594696
301.07231
327.3000496
305.4441965
300.6703109
309.9805286
287.44312
285.9419215
282.4446788
295.8223914
294.8554053
305.9389454
292.0562988
296.7048222
298.8278444
314.7552268
301.2611785
308.6861081
305.7193214
296.500455
300.7182093
299.8990043
290.8069909
290.6761178
278.3497074
277.8374838
307.4309644
296.3822915
298.682525
308.533549
309.045721
305.6632242
300.2049175
284.3525877
285.2615836
288.4365592
288.0413749
308.1199598
303.9933779
300.7076563
302.0709664
311.8959082
308.5028611
308.9161666
323.0580436
311.936446
291.4755786
296.923184
305.3815068
305.3554391
294.5056408
297.9794682
309.4539386
309.5286966
311.1436518
301.0143526
294.0754978
300.8046153
303.4731097
296.8030431
313.315025
306.7341774
300.2196588
297.1525202
288.202026
289.7816944
312.0304497
303.5271729
293.0713525
295.7146961
305.2090185
302.7438314
293.4457955
282.6380401
276.1128954
285.6480649
300.0955077
311.8064229
302.6553463
291.0511151
294.5601981
284.3214323
291.5433869
296.0985475
304.8159792
314.0474005
288.3153854
302.7945935
300.7956122
309.7799944
305.1548655
289.3423486
281.5922248
277.5105751
290.0632284
291.9052746
280.9602115
279.8062423
292.2174733
304.1622413
296.2452665
294.8386293
298.7344711
289.6529617
288.1545502
286.3247847
300.3999297
311.3123095
313.8454588
305.7419112
310.8954018
296.4175585
290.2963579
298.1331911
301.645358
307.0254841
309.5568021
300.3083177
292.9641196
297.6817722
299.3978168
300.8359516
282.2814454
281.9859818
283.1515733
296.4130908
300.8902918
307.5803724
316.0743083
320.6541747
321.6667578
328.7392125
314.5295976
307.9522313
314.8154061
317.2284593
326.8755504
325.1743869
315.4305688
315.9867538
307.5061789
304.9171137
285.6742775
303.4150088
305.0995087
302.6746452
285.5985233
284.9071953
281.9748389
286.675325
285.3506869
282.7946837
282.955889
286.5545113
281.3126661
289.2723716
284.1087338
290.762193
295.540798
303.1513342
310.3817334
303.6384638
308.837735
295.7282144
293.0956312
280.2423376
294.9978886
300.038607
283.6416802
275.7170654
290.9119857
291.684445
288.492067
299.3074255
288.5861011
299.4886464
302.2849053
297.1719628
278.8227663
284.8601711
281.6976896
298.9061295
297.6674873
298.1739232
306.4487097
295.1237614
306.6633587
308.0407106
295.5707082
291.7696755
285.5976439
296.6265563
287.8132585
287.5053597
308.3901557
315.8386125
317.3539697
310.6096468
322.7932866
297.2367249
301.6069294
302.5415032
320.6782508
310.024343
315.9349169
315.5439902
305.8507886
299.1235237
302.5218535
292.904861
307.3546962
297.4789249
302.5990617
290.4785082
292.3178375
280.8412427
289.345117
293.4251664
292.4775839
286.6183669
294.735167
307.45863
312.7876516
303.8016856
305.1174265
304.9190837
279.6218794
275.7760578
292.6312046
290.9548421
292.0968369
285.1176576
281.6573552
274.9778566
271.8372568
292.6896152
312.2708743
294.9151228
298.1404175
295.7888179
300.9847454
295.13745
294.3037018
296.6596262
282.4087984
283.68197
272.6891531
270.8858776
282.9719041
286.9027938
272.1179306
280.0441552
275.8791144
295.4284537
304.4576907
305.3620719
285.8842035
286.2570543
271.4373564
287.9941449
285.649561
283.5848604
288.5436422
297.1924984
286.1416905
264.406168
292.0754092
291.3408084
282.8413496
287.0631589
292.1117855
288.3043393
292.548098
286.3639768
275.2449136
261.0755535
271.5163753
286.0344839
294.9094687
301.0444913
303.7594936
308.2177041
286.8338735
288.6318663
286.2736164
286.0562146
288.9724614
287.6177777
279.123672
278.1286351
287.7418927
290.3671764
290.7152314
312.0729328
322.3284688
310.7176492
293.7479953
293.3980217
304.9008785
300.9437206
306.5414232
300.0089806
300.6374876
295.7700158
284.5744099
287.5269807
312.3572515
307.3439261
302.2993389
302.1950504
317.6724533
334.061785
320.11474
320.031926
313.260775
311.9619843
301.8585279
306.8309264
297.3503488
294.5655752
299.7390342
306.5420365
306.3635989
313.9627563
318.9897826
317.9512465
277.9479617
283.7334063
292.7507866
292.500713
297.7035069
290.2354426
290.8371773
294.6986296
297.8592803
295.2621874
306.7165444
296.6932486
309.8178314
319.1903978
319.0278416
308.4734635
308.5869692
304.6849906
293.4185521
288.8782628
304.5864529
299.2101131
291.1405355
294.7261486
288.8493042
293.570101
312.2149941
305.8264917
315.2977947
315.8435796
306.4346195
299.9754302
290.0334218
312.520761
308.5191954
305.2408965
302.6797092
296.4574701
318.8038565
307.0503962
297.7927465
309.7441042
306.3796883
317.4533659
338.8329841
342.4729609
333.253574
324.665516
322.1103995
319.1742887
321.1550443
311.1749011
321.3398593
312.6512832
314.2482293
304.5933108
306.5807919
307.1439409
299.0875488
300.2637452
333.2004269
328.534008
335.4920926
325.6036518
304.4841878
291.9627523
299.4278877
308.8546088
318.1421027
291.3336238
301.1966806
311.3170312
306.3899603
306.4253607
303.825795
294.5879339
297.7767636
304.5055557
319.1854338
314.9936283
304.3523761
304.7567516
295.760614
300.4104488
301.7349155
303.6908405
299.3074035
301.7280189
301.1756336
322.4611008
318.7562006
310.2534285
305.1073056
298.5624971
299.8276567
292.4196574
299.0304259
308.6385954
314.3823286
314.101121
304.4161149
289.7525806
303.649582
310.1852485
300.15916
289.3260693
303.2410702
303.8043382
305.3811168
287.9235576
278.6770034
286.465656
285.2473914
282.3695338
297.5984358
313.7965143
316.3982816
309.719469
306.5527826
313.3628453
304.7723245
305.7545099
301.5069376
301.5280578
300.3929639
300.1194497
293.5049114
283.4833568
278.7048854
276.0144797
276.6852328
280.5521797
292.6164583
303.9130659
293.7547729
288.9013049
290.3124232
298.1057792
308.0356181
301.670773
307.1233867
307.0690607
303.5428674
304.4398526
301.9446988
310.6484977
296.4495964
296.2241683
320.1955346
312.9406483
293.7320608
297.3626921
300.7123345
296.4451168
296.3798268
313.2407148
309.3057156
300.6095695
301.0437053
308.9069738
302.6980332
304.9384635
296.1452435
291.0689819
294.8464786
304.4572259
325.296093
318.829122
306.2368756
306.1222119
297.2678634
291.1882581
282.2628338
274.9639646
279.0028394
280.1986132
277.3868076
295.6644527
300.2308932
299.0948792
302.7923094
293.8460458
290.465762
292.3262119
293.2002431
295.8724096
291.8967346
278.8026118
285.6336744
287.0351082
303.3471722
301.9479426
296.8710362
299.947471
295.5509588
290.2141868
292.5598695
289.3549002
287.2399769
297.9262969
310.7112298
299.8414234
300.0517165
293.233076
292.6237137
297.231805
284.541289
278.3445972
300.0315484
304.2367327
305.1106821
311.6722101
308.7515499
313.6474593
303.6499862
310.5946359
309.0662595
309.3036704
323.3110299
315.7234908
301.6120919
305.1809277
292.1360277
284.169387
288.7814092
297.4045155
290.2198603
286.0877563
284.4774951
282.8184948
295.3840929
290.6186854
296.2948526
303.566355
303.9983418
305.0991721
307.3379595
308.9722141
309.1982789
304.722116
297.6175928
308.0682201
310.5842413
299.9276851
294.3799283
297.7230497
295.8475287
289.5923123
298.191257
281.8844119
291.6997125
300.8074281
292.5118859
289.0023608
278.8377802
282.6236023
295.8537883
285.2397726
294.1208799
291.0217616
294.4786559
280.0471571
269.4306473
262.2936346
285.8004421
280.7635164
298.792775
301.1764774
302.2868069
301.2959136
284.2568762
292.7116185
297.4520051
301.3002178
302.6376821
288.444405
283.6494072
294.5435777
281.3012965
296.5301442
289.2226438
307.252079
321.8426541
320.3643852
308.4028837
302.8848883
311.6539615
315.5522285
302.6981574
322.9116426
307.6083692
300.0637203
282.7070404
286.1450613
281.4409092
287.9635898
298.157642
288.6244638
296.4607519
295.8626069
318.2362177
304.643564
305.0801019
288.0229
288.6844031
277.9999106
277.0495842
276.2420421
284.663266
285.8188337
306.0317373
302.7697085
313.2225146
321.6900413
316.2543161
304.0819365
309.8337824
320.7265201
307.8182703
305.8058934
278.110654
289.72291
280.8808209
288.4320502
286.8029224
289.1892793
297.8048943
294.9967357
292.2080555
293.7123312
297.6560949
297.8228615
287.3371649
286.0715976
298.7732512
298.9634801
310.0467821
306.0729493
302.8891956
300.5107663
303.6194902
296.1914939
301.3497152
308.7902162
297.7705126
294.5943979
295.6315552
297.2127685
295.5320702
314.1823277
303.9751574
305.7047047
305.7261013
302.315195
280.9739289
274.0269564
272.8364341
273.415511
277.0199479
289.893043
299.0270719
295.6138839
302.6181906
309.1774648
321.3151802
308.6961744
298.5552324
303.3436545
295.9426122
294.5925646
303.3198585
307.8240645
307.845844
316.1523019
318.8170423
317.3092257
316.8175825
308.8014558
297.521114
301.9186113
292.9332647
287.6286113
280.2151509
288.4583766
295.5141654
304.8414634
314.6877394
308.5409857
306.5933833
310.7695358
306.5817009
301.8523965
295.9363315
302.7232302
296.728789
311.9911831
296.8284684
304.8748482
295.3065795
282.2681691
285.2150788
264.2015229
286.4200136
288.144847
299.6262089
304.2074149
297.4292747
307.9024286
309.6339224
311.7260285
301.4660098
307.4269312
308.0210708
307.2126438
294.8367509
306.2190024
299.2340576
307.1569374
289.9865412
291.8737171
311.5149279
320.3952261
314.651744
297.4100461
293.1952159
298.7950823
296.0360877
293.885969