/*--------------------------------*- C++ -*----------------------------------*\
| =========                 |                                                 |
| \\      /  F ield         | OpenFOAM: The Open Source CFD Toolbox           |
|  \\    /   O peration     | Version:  2.4.0-MNF                             |
|   \\  /    A nd           | Web:      www.OpenFOAM.org                      |
|    \\/     M anipulation  |                                                 |
\*---------------------------------------------------------------------------*/
FoamFile
{
    version     2.0;
    format      ascii;
    class       volScalarField;
    location    "0.0007";
    object      rotationalT_O2;
}
// * * * * * * * * * * * * * * * * * * * * * * * * * * * * * * * * * * * * * //

dimensions      [0 0 0 1 0 0 0];

internalField   nonuniform List<scalar> 
5120
(
320.0580711
378.3175638
344.1794226
327.977094
305.2004663
291.2776334
282.7071989
289.1315342
308.6693996
299.8575097
301.6859724
296.3009192
295.8167928
289.8727832
294.286708
321.6813915
292.1191564
312.1271364
294.3737225
308.1438093
287.1392748
268.4808727
292.0532355
299.0345334
308.3326285
311.9533573
326.4903943
316.2818528
309.5494216
300.6611354
343.4465678
315.3390844
344.1956688
322.5258842
313.9774593
300.1267901
311.5932296
334.4616178
324.2340436
312.6551841
239.6212966
240.4649758
263.0585673
278.7942546
275.592825
278.9181905
273.4325395
298.6970235
296.5856021
320.2733275
311.3320558
330.6879915
343.7842987
380.085215
363.6222998
333.4654564
334.1424866
249.820308
252.0121083
245.2181856
291.9893143
276.8461124
277.2191911
272.9246512
272.8259309
281.4350955
275.2613455
281.8845589
311.4379291
298.8491338
264.2681991
262.4796832
262.5998745
246.6445904
251.4278462
272.3148149
278.3578727
309.7799043
315.4549184
324.937194
245.4587978
286.613278
315.4886103
307.3854035
292.184796
279.712527
284.9277719
275.6025605
269.8308988
286.8798422
298.2137784
287.951169
281.3613291
312.1342091
308.3222043
295.3048625
310.2151203
279.2640837
289.8440826
256.3414192
275.4406815
300.4869157
308.3852856
307.0394964
296.4311206
302.6662445
293.0833937
310.9879742
325.8556834
296.5572705
293.8678706
291.2433573
295.1770974
284.3117378
287.2105555
289.1880145
319.724288
285.7150753
290.1110351
271.832129
385.7586426
378.1096043
353.3998381
332.0188972
310.1780692
298.0769928
310.6099166
272.1759
268.998012
271.5493274
272.596057
292.1634416
311.4273195
315.3244974
337.0099988
317.2595005
315.431883
318.655886
330.6839787
361.7522609
269.1012093
275.2453216
280.7901017
304.6066678
318.4115827
329.1088607
306.3463057
326.0537153
324.3340418
319.0783937
319.0598908
316.2003117
305.5118844
299.5652334
295.3289992
290.7170011
282.1638313
293.8482293
300.2497806
287.2099697
325.7044638
310.7870223
306.0751353
285.7240857
284.3473375
291.7937674
341.0054969
347.5010016
310.5058778
297.4848206
302.0445363
296.9805118
304.3290796
302.9251256
312.9264057
323.3930687
332.5194091
330.7936049
311.0829949
344.0253536
279.165284
289.6026932
341.599862
353.4055101
365.0167655
363.7078599
327.937132
339.0983371
376.0856636
392.1435279
360.8881347
358.1391086
323.8852202
335.4337171
350.3184965
345.3471651
314.5721553
325.5519785
332.0824154
290.3182899
291.6270458
280.6390146
263.6513172
277.3876746
256.6433818
292.0748707
310.4596151
323.0560207
320.8891489
318.8819132
310.1438721
305.5578949
314.2749129
292.5795009
288.5046979
276.9250207
313.7702854
303.26851
279.3831317
281.7764402
306.5593007
292.7092667
280.0372311
267.8960483
293.1627534
354.4517125
323.7543749
316.3638903
327.535351
297.0792006
304.3405286
273.7930492
281.5233365
303.5726842
296.809709
283.7461687
288.5542732
312.5617224
319.0779864
296.0887716
295.2960959
265.8561748
234.9606112
277.0443174
276.7536868
298.0385478
302.0511104
315.3610703
300.1032237
284.7493119
252.5803354
317.8159615
305.8041042
302.2797571
294.5951459
316.5953644
337.8936303
335.17203
340.5085579
318.958014
329.1885345
316.9767202
326.8152425
287.2808466
267.532591
274.8791857
297.6221926
275.4436186
282.1502898
284.8700916
298.5839273
338.8311521
316.1442834
296.5520273
311.2468714
292.9003145
283.4333088
299.6686836
283.7049478
282.9891576
275.5300695
278.0004764
265.8054311
286.3508419
312.2203261
316.7721768
293.1542467
311.8430339
307.7963199
325.5416538
349.528936
304.4421508
302.3890324
298.3987328
329.368657
340.5715463
338.7773199
326.0199498
308.2342577
282.1097526
291.3856635
291.4355608
308.921209
321.9333444
318.2112217
338.7270383
319.960968
295.1996356
275.6087434
296.614097
279.9204311
302.9032981
256.4749822
258.2745637
270.3344839
292.2570456
275.2444434
247.8826835
247.514493
258.5506033
305.9579299
263.134491
253.4201669
269.4404039
276.9449311
315.9372108
338.6645107
287.9064395
269.4073455
277.9909555
297.3175135
270.5538151
272.7650287
294.8339806
296.1367414
268.0237046
307.6661033
304.4349898
277.408563
323.1399764
305.2719372
333.7838886
353.7754535
330.1316534
328.2233034
309.8115963
291.8696843
327.3504358
327.0978434
320.5474095
357.4861065
321.5287239
338.2582807
363.476543
315.8250483
326.9599267
328.0531253
319.5814715
320.4004326
321.3337587
299.9332943
266.9038229
248.918525
246.8743056
262.1455342
281.987172
299.6298761
295.1594857
312.9110835
280.605068
247.0883815
295.0431569
297.1567807
287.0943483
292.3068267
296.2378553
284.5213205
279.1988621
305.4643479
312.3619186
301.7151606
282.9219364
285.4855584
321.6814144
290.405834
248.4247706
241.10357
264.6734167
302.7783688
311.1113355
317.3102164
324.2723541
324.2736805
321.0006051
301.9068367
271.4908331
263.7471734
271.9195117
286.0097771
283.68162
348.37644
341.4134181
339.473504
316.6544546
348.2448177
359.2686448
353.9413007
330.7383279
301.8491436
275.4908981
288.583529
294.611721
292.9979578
316.1056884
313.8005198
304.9102905
302.1310999
292.729735
307.7410636
330.4585089
289.3289468
266.8087067
253.6639567
310.3382892
300.0981397
288.2111784
308.6613324
288.4406935
293.3765588
289.4421841
253.5918219
239.1010156
272.0504703
267.6994823
262.8971411
277.2950616
259.9360538
292.4069932
289.9242766
278.4694909
309.4677549
330.8929438
322.7268769
318.7494006
291.0429275
285.3473842
263.0978332
274.285061
281.4898312
303.4440091
314.2237909
330.9089271
323.0867477
319.4630436
334.6917964
330.0440747
352.9852962
321.2631154
341.6612922
309.6230886
263.3943404
263.467871
261.8847174
294.0429197
281.946432
281.4308744
279.467739
268.9923078
273.4098617
298.7805957
319.9871967
323.1017653
319.2363678
328.4489392
324.0605864
321.3074557
275.7870181
263.7283038
252.8568631
268.029764
284.4693435
313.6408797
305.5803654
296.6899806
277.3506391
287.6054199
294.4897836
323.4088213
323.5555195
355.5477635
358.3221517
323.6867025
304.4786597
308.4627682
299.4338278
329.5791105
329.5449
343.2929324
337.6499162
288.2726976
359.4361395
346.4142533
345.3521592
342.6746239
333.1080954
308.1567892
301.3063984
298.1165595
293.5680918
285.0665716
279.402768
260.2163868
336.3503034
323.9067277
332.9398002
300.2718649
316.2732775
310.388116
330.1462556
345.6703058
323.9696512
337.1954303
299.0146617
291.7775183
299.7837696
325.3083356
313.7513168
342.3852848
326.935904
319.3461409
329.3543154
320.116082
322.8620789
334.7814538
305.9368692
324.0286766
338.9837905
359.6760114
364.2981952
367.1024572
286.7672088
259.0807707
276.1846115
284.1893148
332.1431496
326.4629393
298.2491483
258.9733743
268.5653589
259.3112901
278.0590189
280.1503634
296.0780222
283.9230532
329.6893335
306.2031283
292.5499851
282.1064842
266.6660845
267.6953561
333.5686074
336.4191552
357.5705558
332.768384
285.4275219
258.2109416
253.3754053
258.623183
257.2651659
279.8976603
291.6913106
304.4740547
318.1612038
325.0759883
324.8419942
315.0206088
334.0362738
342.6134061
344.3867496
335.1307621
284.5312114
257.0104078
267.9735464
262.8128431
251.1819479
287.6095514
273.2036852
309.9179395
311.4748466
307.4495146
286.9561165
286.9100788
304.3402594
323.9011298
321.6888946
323.7745176
309.3919389
304.9786934
298.7772325
280.4455374
296.603423
292.1644665
290.4544587
313.0895858
299.5749944
286.8903903
314.1191081
307.067202
323.4335772
331.767075
324.0051828
353.1855304
331.2784733
387.768618
364.7007633
336.5440943
312.4726574
294.0744785
287.6044374
273.374338
330.7633456
318.7343674
309.0354248
292.8361381
290.113498
295.8150397
297.7624555
327.6228241
314.8669099
300.143927
289.230994
269.5508756
274.1497734
249.5672569
235.3138389
264.3491374
264.21242
293.047609
293.3235468
326.8777333
268.7840068
275.1956472
290.90981
271.3388239
297.1530014
295.2590873
304.1464963
305.1034665
302.6256392
308.4226195
277.9084361
281.0357902
321.7628792
308.2278758
291.6080325
314.3758838
298.0146343
302.0502633
289.9287874
248.1746619
391.5379947
386.1237123
393.579195
400.1848444
405.0400119
416.9859658
382.5282905
349.763821
341.8957804
326.3461405
283.2581268
296.7528471
294.0116082
333.5131597
364.4497029
357.5586141
389.2543237
386.651582
398.4051277
372.7994479
324.2643555
281.8842686
280.2403934
285.9626201
282.1609664
294.6602993
294.0123448
291.0389008
285.6625195
299.6836997
300.1045895
300.1145274
286.5865703
298.1873809
306.4638998
341.3689761
358.6338608
371.9624316
365.0943724
324.329334
282.1264109
309.908377
302.9391233
278.5821108
280.2685942
267.3881228
293.2038544
324.3117285
354.8332045
355.2479946
354.2462103
332.4293648
333.6532839
326.5530686
338.1803511
342.2742123
333.1021855
322.126495
307.0288041
285.9925605
292.1522383
305.3177788
335.4289681
289.4526152
291.3054614
273.1044286
270.7020274
280.8862451
280.5515245
304.2156126
317.4015894
304.3975101
296.5482248
299.4960317
294.6529351
309.4283428
315.6778554
329.0598692
316.1669399
296.2938409
338.7681511
324.5819393
317.5249865
321.7724731
286.7814249
285.8409811
283.6371054
293.2432005
266.554619
265.3225256
258.0959827
241.7000478
265.3849969
275.7196088
259.3062025
268.7095445
279.5597052
271.2885139
313.1014957
339.4545214
277.4522442
301.1223862
294.2904716
283.2948223
284.7766784
302.7800501
322.868814
366.3416573
380.8663509
353.2295103
352.6873838
326.1234172
295.3747051
267.6578571
279.8716115
277.1036238
267.3975742
300.8008804
289.1469353
288.7977557
296.081387
290.9816704
300.4770392
299.7066374
311.7242076
341.8035542
352.2035113
351.5183581
314.1482848
329.7638621
313.1498372
311.2900622
315.8649032
328.1994926
323.2256873
325.5878459
316.7772233
326.4297626
327.4114153
307.1500889
298.7004675
311.5590635
294.7500766
288.5368961
286.3260344
287.6024762
291.2610572
309.1376233
325.9519353
328.7320092
300.4715372
337.0876551
339.5840273
323.6435616
331.9004694
328.3684058
330.5669504
307.335554
284.6536119
279.4910594
338.600198
339.2409497
337.6753476
338.137394
329.9259338
337.1462093
360.3333052
338.5634864
319.9402307
319.2816239
305.8630849
325.2075228
299.5088059
340.1631839
344.8072837
340.9492174
354.0224012
303.1358242
293.0907751
294.0454734
246.3901125
258.6668994
306.0792631
334.0879021
322.113928
311.0690129
302.9102477
282.4924146
267.1708615
261.2881091
227.3999691
237.8361379
299.0571869
286.9948046
256.7945731
248.3965698
257.5000419
289.2001119
282.0813148
257.1296681
286.6379079
293.032872
281.9059051
290.6131505
286.8111036
268.4284387
279.5763966
285.7917146
311.2179041
288.0892772
314.7054293
307.0738923
269.0314395
258.183887
259.9806035
273.5913068
279.1487954
257.8651631
254.1346054
279.8987894
348.7616562
323.6509856
260.0245027
249.4551781
272.6301421
275.8987559
292.9365392
275.8290417
282.0548499
299.93047
299.6958358
286.2105717
257.3260414
265.0340378
280.1800024
279.5088577
322.5226674
327.8964469
342.9754054
346.5644265
282.1679957
293.4963827
316.0112435
348.4001616
341.0348202
300.8080572
262.9358633
248.9128508
257.9592964
264.5158285
277.9501107
281.8718297
312.5551566
327.9871119
323.635333
321.1820841
319.5706869
322.8196531
328.7648075
292.9317126
281.8112967
311.8500214
328.7380564
310.3944593
316.0040498
311.7899207
346.4871786
314.2025309
335.6901385
344.4294929
326.1349038
313.5222528
312.0378852
298.6491009
300.4855959
318.4949365
314.5501127
306.3221627
302.4660439
311.1311493
303.0204266
302.9514261
302.7204156
275.5186829
288.3328769
290.9758692
268.6644923
251.7880676
264.5012
282.2870446
313.6917477
359.2184566
372.4137681
386.6394667
365.8613794
334.2287692
319.158696
324.9761692
318.4771117
315.360819
326.4555896
295.4805558
288.0617284
289.6179656
288.1187475
276.0055347
296.5575082
300.0158984
300.5971128
307.098017
328.9584097
347.4932296
318.4175383
331.4776741
327.0443666
333.9068724
316.6759709
337.4288405
319.5167249
333.889159
322.7695064
346.3148486
340.6753844
338.5898229
353.8178134
335.7804097
307.173932
340.2563661
316.273246
343.4129919
359.7255826
345.6368296
345.3812247
305.1374351
296.5117199
335.9706212
303.6711547
294.3764154
288.4440135
290.30975
359.3947822
343.7210297
326.4193176
309.3447021
320.5911876
303.1350599
317.2787388
323.7353313
337.8486756
319.648241
336.6399191
349.5186531
340.6215869
354.2437451
342.1405667
318.9752577
319.0175207
301.3459709
333.6228185
342.5104902
302.6908231
289.6259618
273.833646
267.5197551
284.4986732
313.7697636
316.9487302
343.9476116
308.7351366
280.1206462
299.9235453
305.7575558
308.9100003
307.6699096
303.1015032
301.8726881
304.0417041
298.0955387
281.1120024
303.2971728
327.6055316
319.0585431
304.1311647
327.4880778
335.2727754
325.6384366
315.9580588
315.1015495
337.8336562
318.2349398
319.4843313
311.5558978
315.5982329
330.4458338
343.7264593
367.1682026
330.5767615
325.426441
325.6901249
325.1647607
318.0475907
338.8628206
318.1136304
318.0336443
331.9180337
333.5702022
309.091148
299.2141755
290.3089727
293.5686105
280.7680493
308.2790328
281.2937991
292.7066599
304.7961226
291.3795689
287.436982
298.5212569
318.8390655
297.5037536
309.7631691
310.6559904
297.733904
308.259267
319.4260665
306.8554348
307.3504322
328.872527
323.6263183
327.3711616
321.5225621
291.953187
279.7275923
270.8097764
259.784858
282.5405305
288.8092292
289.9652567
277.7121089
304.2876122
313.5811064
310.9047854
325.0531864
337.5027159
330.0658029
312.6931371
314.6027032
322.247218
300.2824872
291.4321548
315.1037379
332.0283215
336.7027103
295.253134
311.8295162
333.9683229
339.0477409
329.6950306
305.7768011
300.5469352
326.1540175
311.8301172
334.5543556
308.2148892
292.7180402
274.6474762
263.8724423
259.3399647
303.6311053
265.2786243
304.8243769
295.0293099
330.7064656
359.5055571
347.9216044
346.7927325
348.629285
330.7414673
337.0230493
334.8011728
332.9215617
336.8196058
319.2427269
349.4531192
325.7261976
305.3790795
304.1564614
294.5078555
292.0352959
346.0832292
320.5914398
331.6660897
317.9178233
292.8628508
285.050589
296.4449277
272.2898424
269.441436
309.877499
316.458056
333.7287039
319.44098
306.9728404
307.4971688
304.9750322
284.4422231
278.5587429
298.4643103
311.0754514
306.6457256
337.3482443
342.8036955
314.9604356
315.2245702
310.6599759
304.1692475
290.4212328
260.1876128
282.7968339
318.9592311
306.1569268
328.2956741
302.0990527
298.0783518
290.8370345
285.5258327
287.5934439
287.3140836
310.2166668
335.3675303
298.7742708
279.117851
305.8335791
303.151412
291.9126569
296.4142975
315.3907232
329.2784723
307.9378203
303.321552
295.16292
300.0476198
301.4785532
300.4293538
314.7372073
338.8123105
365.7703373
347.2359108
325.826438
301.4654299
332.6714088
344.2272358
354.846042
303.806941
279.7622658
310.1860196
325.9895933
347.6681372
338.7272701
331.1595891
294.4837612
325.6816532
346.1054644
339.2058678
322.8843302
304.4521711
270.3409585
277.2204846
302.0237435
322.1070341
323.5765052
335.0004397
307.568676
307.7281393
309.9441964
286.0649473
299.8767146
292.0957983
287.3871634
313.9300541
295.2105005
279.9678128
263.7358573
238.710925
242.7140793
230.8152332
276.5562779
290.7668231
290.8766709
302.6011468
301.9382056
315.9497681
329.2195713
352.2295581
331.2270719
348.4631034
356.1362695
338.4938968
334.9072004
312.5454759
333.8990638
325.8863419
328.106904
347.1842133
320.1193381
317.4152563
295.341448
293.7153714
341.5499022
324.9271357
297.9394236
301.3903439
297.0338551
299.3304773
304.2615476
283.0405068
297.838846
314.9326498
326.9016434
327.2608096
313.6015395
294.6839389
281.8268439
277.1656424
298.7562568
324.8800843
313.6465514
333.9119707
343.6686013
336.7358274
347.767255
327.1522089
329.8037813
311.0644587
312.4538416
334.1982902
310.0491355
294.5306757
282.7651344
296.4517847
318.9537584
314.9027531
307.6135856
277.4155663
291.4408897
324.7733628
392.8834968
422.7037529
412.4427407
391.8456387
342.8192058
306.918881
326.4812934
305.5368004
306.0838619
265.6849532
281.3436736
279.2213794
276.8832954
274.4691585
331.8718857
329.1260108
328.2137061
323.2110154
312.5516762
328.6843183
308.9523759
323.296863
334.2845479
339.5500322
313.5291204
311.0412782
320.1428422
310.7014354
293.4502523
312.4354606
311.4038071
332.8007573
320.1603921
312.5637678
282.9618097
276.6620225
268.5277182
301.4884774
291.2005267
315.8382754
304.1440739
264.815421
290.1799542
312.0846845
304.4418214
308.1985208
299.1510514
318.3730834
307.9403531
289.5814257
287.2878222
279.1497722
284.3191213
287.597245
295.9647339
299.3010012
295.6861866
291.3523851
292.5146322
278.923074
273.9566531
290.0561914
291.2853018
312.2364881
313.9478918
304.3242725
319.2256269
278.4893868
273.6220008
253.9212599
275.5905931
273.8688263
298.0029008
269.942979
320.5260695
328.6897528
336.2087734
327.6376083
342.4155032
346.1667679
341.0261524
316.9267157
343.3432362
326.9165734
306.4979291
304.0992794
326.7889121
281.0527489
291.8622562
273.9259573
297.8829143
302.3126927
289.0031736
319.1569017
270.9426019
301.7988096
295.7050666
277.8067837
262.228782
269.5643185
284.6559194
303.1565697
304.5931123
321.2023781
337.6627611
332.0744734
339.7128344
345.8008704
300.1284395
258.4722806
250.6446583
262.0922631
273.1091668
248.2772519
274.4568117
264.6078974
279.5207929
279.309059
277.2085901
302.9893358
302.1082935
288.0249594
296.6936472
311.2259298
284.8899813
300.6396039
293.1527463
314.8435319
276.7908115
305.561012
304.1943133
296.3529476
277.8328151
303.2291391
284.5383827
280.129215
289.2078228
306.4693171
316.4403725
356.2529089
361.3410053
351.8321094
337.1116112
360.3878585
370.3914918
347.0924854
333.363778
275.3137585
270.4744846
278.885611
266.9328719
285.0113155
272.2166234
263.0275994
315.1713837
339.4874189
342.5137242
338.5437969
339.4438283
300.885707
316.8177554
309.8021157
260.0549234
237.7161447
253.699482
258.6122234
262.2757308
274.7711066
263.145328
290.8966146
305.7462878
308.7056683
351.034669
324.3618324
293.974436
292.8616005
305.4133575
311.5378911
317.7075393
359.2275156
311.0837409
312.9464583
310.2533274
300.8903469
293.5675942
321.3054524
332.1012005
330.7582307
284.806387
325.7774439
319.7326113
312.5628101
301.0780691
263.316043
293.7479729
295.4755843
304.0029302
277.4725981
284.0378698
302.0101324
321.9015995
285.1752195
255.475726
273.8435464
266.446022
245.2091664
250.4533836
257.8066515
278.4731328
250.5279512
269.005828
276.0002238
268.8833197
281.5723708
297.7908471
308.3570649
318.4226875
321.4711423
302.7984031
322.2101526
322.0117204
314.7652928
318.8240139
326.7678795
289.7406765
282.8160625
283.3924581
304.8055021
332.580778
307.7427583
290.2793354
270.0671977
293.1054617
299.1423881
297.1647453
278.7588605
281.4096601
272.6709521
282.6250353
289.2944009
290.9439703
267.5811364
267.7921983
273.0273297
289.7394502
284.8414459
314.971531
337.2734991
311.5255046
312.4494815
279.3420961
273.8975977
280.6723964
284.2089489
319.5367364
307.5701008
310.8182163
333.2576848
324.4629926
325.9462351
317.9649997
307.3019424
270.933608
269.5804121
263.7820097
294.3889549
286.6253009
287.1563174
272.081465
270.4180649
278.9617406
277.5951119
278.3786295
293.2350369
259.5827126
277.6384348
267.9715454
289.8367347
294.5652121
293.499484
289.6319979
281.1033346
243.0441281
251.1284848
284.7252313
281.9948134
296.8163807
272.5855212
281.2810728
281.0480697
298.6815342
287.3805402
261.9710968
276.2806423
304.7607174
297.5450529
302.3964835
326.3573022
315.7761936
281.2143
300.0843329
323.5767932
315.6097506
322.9156198
303.2343958
274.4438769
298.1985983
331.068524
329.8715487
294.0869365
292.3920503
299.0958654
315.5284497
341.1509112
320.2508708
318.3583024
363.1135681
348.6130229
354.5630391
322.1365722
280.7306832
266.4515628
278.9901718
308.0323722
304.0369294
281.1519803
302.7932059
288.7727389
286.9846657
295.8538805
329.988676
328.2248144
329.2868994
310.770327
348.9700355
331.6800727
318.7018779
322.2721908
319.2902799
313.8481748
316.0045657
327.413897
294.2527034
261.7658825
264.9212865
284.4974316
274.1723053
270.204857
263.2698577
278.9812888
273.5737021
310.1311959
338.3839425
315.9165299
301.4467106
343.6480535
333.1684897
351.4917135
341.3651227
310.6006334
284.9471686
295.6924089
311.6765075
288.8094444
303.7685435
302.577614
334.1345752
339.1857272
325.729477
327.0546937
302.3528399
320.5435091
322.9754227
335.1877311
288.3380543
288.5709132
284.0510926
266.9945747
264.0138693
280.3845956
298.0539234
298.6560504
295.0999841
279.2317083
292.6692389
313.5866819
319.478328
320.560016
342.6562854
354.4620384
394.9292223
347.1772201
308.9641489
302.5880816
292.2038939
320.227509
313.1352159
318.6060044
318.5619653
336.0904334
285.3476787
310.7702295
285.2558753
303.7191026
274.4580452
292.5172833
307.9875805
297.9217921
288.889687
296.3847228
266.8977538
279.7517653
280.0879266
294.3483378
298.0112872
279.7749686
279.7617236
276.8187273
296.7932304
308.5983372
324.2534632
302.5525426
307.6342255
306.8242715
292.9905984
317.7573728
296.8085609
282.5265375
285.425851
289.4478986
292.8033061
292.6037231
324.8632433
310.9068899
287.0123254
302.9874226
305.011407
294.0502435
307.1501573
323.9293582
321.3011788
340.4964078
338.9071948
346.8741221
328.7451303
315.2420144
325.5943387
319.2562934
345.4841888
324.1380334
273.8110498
283.2268535
284.6658559
278.8972536
321.4044435
321.522157
291.253639
300.7313378
311.6382752
298.0945552
304.8849332
318.393745
304.7368786
297.239632
284.9430887
310.6436156
315.3008693
279.7615138
288.819661
291.6184678
310.4936612
323.226181
342.7135644
340.3885525
311.8682701
301.6220134
308.251093
321.2978465
304.7140203
264.3353797
265.8527151
276.6316506
296.1697538
297.6573236
292.5049589
268.3423312
293.6693035
316.4278197
290.225312
282.7247186
284.1863992
276.5353223
294.4012231
302.9290489
290.843642
318.8791891
322.999241
308.8050536
305.5279744
279.5099615
279.9956017
310.7082154
324.2215859
314.1990175
326.7709251
332.3280473
313.3044636
318.7240729
326.9723563
316.7168922
289.37982
320.2865394
298.0950597
301.7445157
283.9637105
287.4924527
303.7116571
322.962677
314.493334
296.9115119
272.459425
279.7059738
287.8994004
295.060915
295.136438
284.5672073
281.1701432
280.9772695
293.4270197
313.5360233
273.9123781
277.0439438
250.2251631
256.7497572
302.5735528
271.2489074
254.5036545
245.1103471
272.9648503
281.4468412
273.6135344
293.0266782
313.8867256
305.7666759
292.0793508
310.7658539
319.0194466
307.613908
313.1775856
319.4209539
315.3405058
283.7038206
296.0770912
299.9948559
261.9437677
256.6029636
253.2601134
253.062494
251.6695581
251.94352
239.3029075
267.1268392
285.9362849
318.3372984
325.8408059
342.4055589
334.8847056
312.7105098
284.0434059
289.9289167
275.0108656
259.9566098
291.0824904
265.874077
303.1825879
315.8189857
305.4799998
293.4141857
287.4815854
291.4865021
303.8352016
304.1404491
311.8531854
316.9875317
307.8242464
314.4347483
302.2441148
270.0836733
269.6920608
264.6199586
258.8757662
268.2399158
302.1508101
298.4464765
314.2494222
310.4227787
303.7221528
268.4913647
277.4120302
295.3879516
327.9711283
290.861464
283.7945017
271.7136693
257.9477384
252.2303752
262.3400069
278.6680908
287.8131621
317.4227106
331.9476239
321.7108088
303.0066949
281.8090916
337.524456
311.9751496
288.2554961
280.1345058
277.8230702
258.9912313
279.1103725
270.2394251
284.4991591
321.9855147
358.2316234
320.719724
323.1609155
328.714647
298.615832
314.4681088
319.9542079
342.8888955
314.5642871
308.8953766
266.1013074
256.680961
283.9906631
271.6081973
241.1819161
279.7368198
313.3955417
329.6159868
342.6057198
339.940523
300.8936259
300.1288535
290.6974083
293.3082003
278.3583337
270.3576619
288.146316
270.9562502
284.3313969
258.4198567
287.5389434
318.1917356
314.9325758
333.4944642
344.6649057
323.1044748
287.4109282
269.4968332
268.8429559
245.8835337
250.0020717
266.8129497
270.6085247
258.46292
270.7562552
286.3666856
277.6588989
289.2866369
310.1879545
297.2300896
249.7210082
255.7553305
268.5815545
280.2114749
294.8682894
299.1612888
314.8049494
333.6719368
326.1953546
300.6254053
308.8648699
290.6718391
295.5040544
250.0869218
268.4585424
271.9907114
262.8672897
244.4764737
235.1395111
246.1977657
306.0078123
285.8760011
270.4905072
271.7108618
283.5344238
290.5558533
294.9864213
297.9833488
300.0015206
298.1642351
267.0422872
276.4993357
283.4635191
289.2692607
284.3695742
276.3402765
269.792096
284.0825215
286.1875543
316.5487283
262.4115031
270.1624393
289.9436611
299.264279
309.5827908
311.0983288
296.5224966
293.1831168
317.2120484
336.2680635
342.4571506
315.2425711
314.5608439
313.9823933
323.4298909
284.0932524
278.2816579
270.972494
282.0278305
268.2324227
251.8678112
257.4504459
268.8233169
287.1754648
257.5018068
261.481052
251.7409522
240.7140581
261.2563994
262.4074074
261.3256758
248.5916307
248.8140604
289.2597058
285.4178996
296.074503
300.3442046
266.2959067
255.4572906
242.4993428
332.9538683
333.4186812
322.417385
334.2946198
368.9240772
346.6690865
339.1878334
338.5927474
324.3752858
339.4533606
329.8014603
306.8418132
310.3359674
321.6472419
303.1908386
243.9837573
240.7206881
256.9789766
279.8935586
305.7781146
350.6897941
338.6312744
373.730002
385.3672344
341.4855509
323.3781862
315.1496993
306.4209344
270.6313303
255.7060655
283.5409629
291.9366714
244.6666531
266.2341482
287.6507744
290.0730636
297.823601
294.9631405
330.4198652
326.7230663
286.5547813
303.158493
297.6370946
295.1344328
300.9652584
328.3493198
333.4442072
340.7913742
326.8524893
342.4300774
324.3858015
313.1367534
309.8337799
324.1027734
315.8216935
316.0036899
332.6175995
327.3954037
277.7200345
311.0055995
329.7940861
275.6818384
276.7004263
265.3089558
256.5632942
252.7788705
260.7212256
272.2642097
260.4003952
266.3594709
238.3439947
261.1260443
282.2303896
261.1109371
254.7206669
307.0667531
318.0636522
309.3846586
341.7223736
339.3430249
294.6272459
294.9743276
288.8171742
283.6832672
256.1545579
275.227757
258.6910092
263.1407985
267.3424481
263.049891
278.3051619
275.7633434
274.2605317
280.5072163
263.681925
263.0895104
260.1715984
258.8913844
273.64609
263.2836655
300.1732474
292.7087105
290.5389475
309.4627636
334.1966779
350.6656843
322.6492564
300.7912702
292.3433062
300.6122399
272.0643525
285.9512925
288.9410922
283.5277561
285.557076
296.7772016
318.2727965
313.687399
311.155807
306.7466144
284.7692476
295.8852069
276.7898494
263.9043651
281.9553088
265.6135913
314.413373
292.8673068
300.3484509
321.5664264
304.2031897
267.117899
265.6972606
270.2896484
295.1101228
292.3177494
274.627795
287.5801728
264.0643735
276.4570311
245.5678838
239.4221378
257.2418929
257.5654797
262.3278875
260.8738791
284.0605063
249.9603743
259.2004086
271.6233602
298.5618766
267.306857
273.6439557
276.1207809
275.538775
285.7258322
268.3325204
253.1523644
265.6933977
263.8139008
308.9611304
297.9520537
297.3814445
300.8567294
298.6772955
293.1285701
272.1669253
262.1279425
301.5399978
293.0235828
268.4468756
270.426631
261.2872481
240.6986961
236.873848
243.3851089
256.1936
291.9391871
304.5936623
325.6812693
309.1729792
341.52014
342.4744388
332.7660339
305.7174274
329.2591962
315.3559218
322.8261676
324.6784959
321.3436556
329.8950481
339.317723
370.8297285
381.2400414
375.0428466
395.763768
393.887464
376.0128511
364.1812021
330.8030782
352.5391958
370.904285
355.455733
340.0171418
333.4610127
337.5697086
331.7678856
304.5110731
313.4799766
272.187049
293.5820903
332.4241304
342.8516847
341.1501066
346.9741228
334.7037006
323.2892919
302.8890284
333.904106
345.3150531
281.5881239
260.0798967
264.2076214
276.9103521
321.8411011
313.2635583
343.7984874
325.2996437
349.1112141
345.0083345
337.2255647
314.373193
302.6639229
304.8546114
306.7646742
283.426249
307.9469647
304.678091
261.0266683
270.6151528
286.1393131
305.1737326
314.2768238
309.7804798
289.4333615
286.3257055
255.8087427
265.5497674
269.4177342
346.1699965
311.9371523
309.0724025
271.2725426
285.9967308
291.3543382
284.1808246
260.8419695
251.0982374
258.9878945
295.1436524
291.1870015
284.2523454
291.3172964
282.7888483
263.4372534
265.211506
269.4645749
241.8406078
256.1638049
248.705488
282.5070909
297.6119882
310.1121481
311.7838997
307.1895531
272.9365121
278.4265459
294.5196685
304.5308507
285.0238908
251.3623527
260.2275827
261.5175286
287.2749309
294.9870555
285.0079389
306.4710197
315.5191332
302.1356512
294.6674344
301.9343277
289.4789231
271.9031582
240.3342282
281.0705232
297.9266109
322.2243629
315.6872927
301.2079715
273.6356265
264.3912818
256.421036
253.6495681
248.3235933
259.7848502
261.2511748
280.1393645
283.0945771
292.1497435
302.3084962
296.2887301
310.1072003
338.7360458
330.5079326
276.9178541
264.703945
250.2426536
228.6770834
247.040496
252.5323047
272.79505
249.8157415
239.9604426
291.1843084
283.0150793
281.2094266
277.626414
297.9747934
289.1664917
303.7254978
305.936548
276.4644933
286.0195628
267.4675244
296.0381615
305.5519418
299.5295684
304.3909678
287.1573336
285.2922267
258.852931
232.6226838
229.2908283
231.1383378
277.3043476
286.3820316
287.8386656
298.413022
288.2079974
283.6053043
302.2148412
302.4715868
323.0667881
327.1236925
272.8154699
283.1087129
263.9661574
266.2794826
286.2882085
264.9653068
291.0098623
279.5785973
309.7746322
316.2960014
315.8165224
308.3767489
287.713219
279.7225069
292.0199991
313.841894
317.7821097
313.8192326
307.2909836
322.0935276
300.7086826
312.8020194
316.0061879
329.8579515
295.9980934
294.1035469
287.9603197
308.7055581
275.5851904
283.9175961
275.8684882
279.324699
270.2980202
278.5837761
266.5984173
250.2302061