/*--------------------------------*- C++ -*----------------------------------*\
| =========                 |                                                 |
| \\      /  F ield         | OpenFOAM: The Open Source CFD Toolbox           |
|  \\    /   O peration     | Version:  2.4.0-MNF                             |
|   \\  /    A nd           | Web:      www.OpenFOAM.org                      |
|    \\/     M anipulation  |                                                 |
\*---------------------------------------------------------------------------*/
FoamFile
{
    version     2.0;
    format      ascii;
    class       volScalarField;
    location    "0.0007";
    object      translationalT_N2;
}
// * * * * * * * * * * * * * * * * * * * * * * * * * * * * * * * * * * * * * //

dimensions      [0 0 0 1 0 0 0];

internalField   nonuniform List<scalar> 
5120
(
303.6440915
296.6743473
303.7887424
298.7265897
297.0968166
288.0675845
299.0673973
302.2485917
280.1295369
280.3668402
273.4749389
274.2396941
260.3452554
276.7754635
292.8149219
284.1920601
275.6436573
286.5109573
300.3842321
300.0357881
280.9017466
292.1806351
302.654728
300.68895
293.4636728
327.422125
308.7687291
303.5700744
321.6352445
314.7333896
295.0912946
290.5557305
290.8126661
287.7623439
290.4135332
297.3152717
300.4698625
303.2064583
282.9293018
271.9103369
290.9889726
299.9396378
293.3738914
298.222445
297.0027848
293.0377734
291.3652308
294.7342129
292.1435919
289.6531449
284.4806758
287.4235018
299.8262767
298.7167399
297.80826
298.5367215
301.8519532
299.7439676
312.531872
302.479556
299.343386
292.5793504
295.1719954
308.0416023
304.7722749
298.4795632
287.3927594
285.8745401
272.3825981
292.9592709
290.9352995
296.7568694
308.0883868
306.3621908
290.5832926
281.2713423
285.4098237
269.9881899
282.4184696
311.0626355
290.3363059
301.3423785
317.5705712
306.5600154
279.6812072
293.5479034
302.108689
297.5562608
291.4794416
295.6783664
304.3046018
291.8530061
295.4897276
289.2100391
281.3316347
266.5619619
281.3800345
297.0163841
304.2836186
297.395124
313.699954
313.8878971
311.5286042
309.7842668
300.9457543
302.7078849
294.2794045
287.0755216
284.7826813
264.1086129
279.783764
288.5656214
297.6895922
306.6338021
300.2894624
316.3796931
315.5232609
303.2493836
308.3758061
308.5260044
291.0636411
305.8159035
286.7192782
284.9107587
291.0193354
303.4853149
298.7595876
294.0170731
298.0586944
312.0707082
306.8879161
292.617621
297.0166166
303.9043121
289.6298292
281.2473562
287.3516459
305.1565799
313.5679066
304.4458404
274.3464474
287.028953
308.3953792
307.9328122
306.0153233
309.223963
319.4797335
310.655934
304.912813
313.5808815
320.2858653
307.689725
293.4699952
288.5555976
312.6424351
308.9488431
290.54492
291.5751661
305.557518
290.8042641
305.3814777
307.0514309
297.282749
299.3537777
298.9942905
306.0935731
314.1964185
310.9850553
306.2473964
290.2886289
285.9201197
290.5507879
309.8368407
299.9985728
293.4485731
289.3344754
297.9044025
310.7138913
293.1267892
302.6290054
313.6131839
310.6090684
288.7017658
291.1968072
290.3941231
284.6399405
281.5793687
293.9180985
305.5295177
313.3144992
293.6956648
288.2938155
292.4916155
284.3528038
284.5736234
290.4638092
287.002379
299.7179986
302.4248801
309.2391802
294.396076
295.7009512
298.9730661
285.2633378
291.2751055
305.0859271
313.4254864
306.6480504
297.2555076
315.0290341
320.756961
306.0436573
296.9673916
295.9033133
286.3389174
281.1628039
283.6643732
291.2715754
288.0265936
297.354337
292.831421
292.4483728
301.1404218
301.6037473
305.2105718
291.1855285
290.401242
292.5090571
308.379869
301.6687975
285.6378601
285.9044242
287.5913989
284.3919152
297.097716
298.9047463
300.9149563
306.1114316
306.064372
280.0081093
284.5796215
293.0708027
294.1939084
304.733045
314.096298
313.3120705
301.5364729
283.2817633
290.1597834
293.1894843
281.3120055
297.4554445
309.0719438
301.4004846
300.8325691
306.7957328
299.6902496
295.7998994
293.5660561
293.299396
293.166939
290.8735915
294.0726174
294.0810498
278.6125279
296.3133284
297.8904277
305.1492594
317.8344299
302.7614158
297.6207247
303.9525716
301.6163109
295.7890436
308.1252746
297.1146682
296.3540567
294.2707523
295.4610971
291.9873699
298.921387
313.6157646
301.621782
310.9920176
318.7335218
298.2174874
299.7696983
310.4896739
319.8645135
327.4125154
314.9824654
311.13356
310.7049678
325.1680598
309.0340461
313.0532173
308.6334285
319.858255
302.0839247
295.8305469
303.5514962
297.5205633
290.7110002
286.5790941
284.2972711
292.5476658
287.0600304
290.2084208
289.1829389
284.4765817
293.5219699
301.219558
300.0162472
302.3458848
286.0077627
283.4564546
275.614365
284.6251584
293.9764453
297.9287399
292.4683403
294.5576176
297.8569703
304.1837236
292.2697384
291.4743372
264.3605091
280.5212484
280.5006892
284.6001702
289.5894306
304.6010344
300.1763539
303.8783442
296.2929392
290.3311353
285.3401215
300.4108239
293.3424808
282.8314676
324.6338419
311.9739521
311.7864038
308.4607287
303.4122933
291.1294418
292.4240114
285.1264088
286.1631127
296.4720626
291.6190092
293.5234427
291.0780234
287.3930673
291.3466233
296.829315
320.9296314
305.2371792
300.4732444
308.6715774
283.4282202
287.0680498
289.6620357
299.0363203
310.7471857
312.1490409
305.1205967
302.4182555
301.656544
284.7031309
286.1332327
285.0701776
271.4754601
290.040745
293.7947467
294.3267869
295.3361235
292.6894613
292.0824853
288.1506805
299.1237345
304.9365739
289.096884
285.0102793
297.9524322
294.2660946
292.5796584
296.5297397
294.9140776
294.6817833
292.9887677
289.4477499
286.6619333
285.861984
278.1324668
285.1239253
283.6481533
297.5468197
291.0929603
282.5190797
300.9170516
290.1415388
279.4274643
273.0543151
277.3991145
280.6779287
285.0266703
284.5327394
284.0106876
279.6662993
292.5034467
289.3138083
290.875918
301.0138026
293.3318883
301.694586
287.0218817
275.2494438
286.5912488
298.0416354
306.3417263
310.5149728
301.2886894
292.5829758
303.4647433
295.0021076
293.1700184
270.0617014
287.4808842
292.6915481
295.0134031
301.7550496
307.227303
313.3061307
302.3563179
301.384506
294.8828243
289.000618
290.3539705
298.5041842
282.4154099
276.4264665
282.139915
287.3406322
304.3625392
301.4479582
300.1309025
304.8395492
306.965444
311.8127219
311.998316
301.7555651
300.6511938
284.3300692
292.9596514
288.071111
296.2565551
276.3390702
281.9727885
286.5948684
316.065547
317.3932182
309.5074103
304.3619232
303.271882
298.5688724
293.0452995
303.8045245
310.0876083
294.2745408
296.0980637
295.9866054
301.3883011
300.8764082
316.3174386
311.5529942
311.5749693
319.5043417
302.0736392
299.433112
289.691156
301.5670851
302.0017657
280.0374061
299.3024532
294.6440223
298.7473732
304.5862823
310.5447865
295.8121789
304.7341153
314.5145209
299.160155
306.5113982
302.8806315
307.0671645
308.5104812
287.472415
290.5289312
298.8040534
287.4729622
289.4732598
318.8903393
319.8806471
292.2385423
287.7431775
294.59628
292.6086508
300.7964171
300.4914265
296.4134033
312.9583855
298.0616257
295.8250775
289.5797427
299.6070806
302.9987855
302.7603821
305.7447683
295.8583306
294.1365603
277.4807149
276.566641
283.3981012
285.1721754
286.3675005
294.9312802
287.2656367
286.8982713
285.2268529
313.1234582
302.2556876
288.7180156
302.9141075
306.3660066
292.8999493
287.9050882
279.0789907
291.7992742
301.678262
275.7655653
298.8939608
295.9935216
288.0072328
286.6462294
294.0619736
292.2324062
291.2382771
296.7393199
287.3897957
291.637161
289.8132668
299.3706132
297.0609476
297.3963068
281.4043768
288.800327
269.3117258
245.9742638
252.0889085
297.4027192
298.687709
297.8148717
310.6353046
309.8831023
311.8592905
320.6797723
311.1990176
295.8370985
298.1759871
294.7843253
308.0223508
295.1434602
280.7853388
285.4489804
293.0079905
291.5983597
295.5347038
300.4994077
309.4934977
308.2953625
300.3050884
293.1773779
290.9486132
300.7091025
311.0877341
314.7054669
302.9371753
292.416597
298.192023
307.3119906
295.6613932
289.188185
291.7742697
294.0001239
305.6488161
297.742711
303.657599
308.4125743
316.142734
304.0685687
313.6265447
312.4470956
307.1439006
312.1439051
303.4389722
308.9331382
302.2685814
303.3383459
303.3478045
315.0081818
295.0802278
312.4068396
314.7807229
300.9386749
310.0444622
302.8712664
308.4355217
342.8380197
337.9152376
315.0416168
302.8420623
289.8682126
283.0250805
295.6118258
290.0418041
303.4052301
302.458563
302.8693163
297.6329893
296.52245
311.9933061
316.7940282
301.7580505
297.9545833
298.2827224
302.8245196
301.8568387
305.1521961
303.6425333
279.9741802
281.2601879
283.3858264
302.2945939
293.9347642
293.3827541
300.5822263
304.823709
307.3497551
305.3449645
301.6055373
316.0534419
318.647616
312.3363106
283.0393368
282.1592938
281.5547531
291.753215
297.5135179
298.7076942
287.4330715
291.0730508
298.139292
299.9277653
303.0709444
312.709604
297.5409365
308.2102549
313.5151945
308.6408321
309.1135665
298.8338262
312.484518
316.2105746
311.7712478
300.9244551
288.8110485
281.7225368
293.9561172
289.2478647
291.9439168
271.0638568
270.2706543
291.1564073
283.3026957
291.5407712
300.7782145
301.7835003
286.5711992
302.2261177
296.6053598
316.18295
309.0047026
294.3060558
286.5474126
304.7512132
287.8464683
289.936428
294.5050104
292.2517543
283.9146975
279.665301
279.787239
265.8063421
269.4129204
279.7501993
273.4469122
284.2094475
293.0264383
291.4602433
285.7595472
286.4658266
290.7920658
296.4265521
303.6598219
301.3375032
315.6804357
309.1618431
314.5952564
304.0798457
295.9354702
286.7647139
292.4863887
270.5981112
279.3251598
274.038507
288.1110771
299.7053876
305.0045998
310.0399376
303.6042413
288.4468766
291.921591
283.2457548
306.1488044
301.5858571
300.6282968
299.5792573
300.8938327
289.450953
287.3261071
286.1681972
282.8737851
295.6529211
298.2704877
296.6564579
289.5675945
296.1008533
296.0630087
308.7907823
316.6496244
295.3791845
280.057553
284.5477197
268.877218
279.1200256
289.2546469
293.3493166
282.8779326
286.2046827
287.0827343
288.3974757
298.695078
308.5754847
303.0128186
293.3420747
301.7667178
320.203856
294.3683862
300.8191439
294.9727894
298.9507539
301.683731
293.2866711
304.5749551
291.4224115
285.2036118
301.9779263
309.255123
287.0876348
302.5230021
305.0072403
291.9351029
287.9424339
299.8231158
292.4945837
276.7602325
275.5956855
279.8022005
274.4605131
289.0138813
293.0556553
284.1984064
296.2710448
295.3867896
291.7940978
306.4210036
286.9537749
281.2042478
296.0593765
312.3657413
300.3224669
315.7317906
316.3888544
308.0769213
306.3295092
305.1847099
301.2563509
303.687597
315.1891705
299.9051031
296.6757822
316.2362934
303.8155208
295.5989845
281.3709068
286.9002668
296.3899622
306.6851856
310.8291334
301.8023222
302.1658733
296.2597076
287.8147995
295.6921919
292.39835
285.1819423
288.0667919
285.6605384
281.3801149
297.0114738
301.3189476
304.5266168
300.5728194
302.0742916
307.6911153
304.0869027
310.7932747
288.9721396
284.9023103
303.2931717
295.4549071
283.4501717
293.9672568
295.5651683
306.4256729
303.5515613
293.2262785
313.6400534
309.1317462
292.5671418
302.1754975
308.8373163
306.0107376
302.0059322
292.3250573
316.4617121
319.0863418
330.7982797
315.1879044
322.3796924
306.0225938
305.7623636
301.1928044
303.9872475
294.9348241
307.3846381
293.909095
304.5177323
292.4618497
284.5925987
296.4308804
309.4239278
310.0876448
318.824931
326.0595298
296.4454926
286.3924345
284.9027882
296.7962152
283.6107714
300.9905595
290.5639762
289.1753762
280.2654419
291.0081594
292.5762449
292.5782129
290.0399169
277.0068387
285.9666176
294.3079925
289.3016713
294.1220215
272.0999619
268.4046371
297.2373798
292.8402731
298.8303405
298.9759989
303.8238754
289.1500881
283.2082087
278.0409067
282.7295778
271.6363539
268.5935831
294.6904189
307.0825668
305.2195826
277.6607157
279.5346456
293.5908544
287.146432
305.0591236
289.3256678
296.5579799
310.9168646
300.5870787
301.2701365
312.7983642
298.3211229
298.7510787
299.6309228
297.9067536
295.7238967
319.5261533
326.5635854
322.6344973
306.6333954
306.0654576
303.7317745
280.4675803
283.1376753
285.7492682
287.7504663
294.9036003
289.1560629
296.7211506
297.7276226
295.0301696
284.7197567
309.5981302
307.1877718
305.3978422
294.1532189
278.4935066
300.1471898
304.3404763
311.4938659
323.7136767
329.55951
317.1957033
313.3889234
326.2015095
323.4276432
321.1725761
303.3906692
306.4181856
302.8498579
303.6734718
301.0127326
289.0600486
268.4226635
281.0702349
290.5702794
295.9290532
303.6185209
310.0539143
288.9857532
290.601584
310.313872
296.4830958
297.5471249
300.6839773
287.6146429
293.9212829
286.6253327
300.1782083
306.0199848
306.7615787
308.3053587
307.3424444
306.6944424
314.8419623
309.8172454
308.2668043
308.278653
307.9609311
316.2696427
325.7654475
306.9991902
308.4718183
303.3357583
304.2239961
306.4125884
299.272433
315.6332397
305.6064488
302.7745465
277.527561
282.4789077
297.4017961
300.5689553
287.2780487
284.4898291
297.635865
305.2301709
310.0319469
297.0778274
306.2837534
307.053193
298.3969116
290.1908563
304.0904311
311.5755313
298.0432874
292.1719966
284.6574247
289.8322048
312.2606354
326.6614729
318.3720531
304.146514
301.5894273
305.5995112
304.1920613
308.5187326
288.2159848
288.15845
271.9965344
278.9056665
290.9685911
293.9918368
290.0636496
300.256962
309.1019365
303.7467091
300.7998488
302.3071282
316.5674521
299.0906626
300.7480303
292.4449495
283.7341509
280.0317451
288.2958782
316.8551192
314.6684771
298.6430652
291.2336533
298.0278282
295.425554
286.4011817
299.5597277
304.0059789
299.5625576
289.3625353
295.7132598
306.8598744
273.5663288
264.4188323
274.9648159
282.6226899
291.6997159
307.6118009
289.4356202
281.7061788
274.7011644
275.5185998
301.3450502
307.6875777
305.3823059
290.0905084
284.6377933
294.4436359
290.9803688
308.543768
294.0796658
274.6000651
292.436958
299.7075704
309.1226929
323.0921504
314.5110785
312.7952592
321.643387
314.7374039
321.4894274
302.7200596
295.2153262
290.9567055
305.1157982
293.5862074
286.99404
283.2142042
299.9423583
303.5025222
309.2565676
307.9158052
309.2318909
296.43678
289.5520353
286.9365968
279.6545565
287.0200814
299.1956933
309.1989282
298.5660953
301.4263634
289.0833627
298.4176628
298.9292788
300.1062777
308.8237161
305.4595059
296.8091836
288.706002
282.9448442
293.469131
307.321422
313.6368279
305.135511
303.600946
290.1134026
289.8348228
295.0868778
296.1193491
297.9237054
299.831337
306.0315058
296.4696754
286.870727
296.0611213
286.9456004
298.397043
299.7025374
293.7839151
294.7046134
293.1831149
279.9680812
279.2433722
289.3952218
300.3275494
290.1955025
274.7677821
278.5744967
286.2530881
285.6656197
299.5015818
298.7725144
291.6882968
281.8726706
294.195209
296.7629755
294.0768358
276.0862612
282.9925373
290.1731446
287.9694373
266.3790684
282.7253588
281.6595433
282.7065678
302.3241447
308.6778166
310.110419
321.5038573
323.8469662
314.9220318
304.1140753
296.3393828
289.1446034
303.833658
304.5646622
297.2348379
305.1586879
296.1729571
285.8881733
267.223918
298.6147911
299.2403977
292.1420122
289.8243245
277.2073304
308.7316968
314.336714
309.9237752
297.8905484
312.4508114
318.7988116
311.9334908
290.4675685
297.8957369
296.1069324
295.4827776
294.9956099
310.641172
293.3885369
302.783906
287.6572085
298.0344749
307.6796167
308.7644753
308.556284
295.583777
278.6335366
274.1056837
282.4163786
301.4243173
295.8716838
299.096666
303.3803458
292.0476001
303.5716082
293.7692765
288.2234305
279.8380918
289.0655627
301.4282028
308.2450931
310.0019209
312.5553064
303.5720478
288.8706591
296.2336003
301.3959986
296.2602585
295.6544716
296.2058888
304.7276546
307.7091831
288.6756726
304.0167738
282.2966757
298.1521869
301.2574376
302.873375
303.656209
286.3289633
315.241575
330.398997
296.8207854
302.493681
300.0959424
325.8467548
306.0718677
299.4612811
297.7717103
290.8980665
291.7579037
282.0767711
296.3902026
287.7817434
295.6710118
296.7817013
294.7086504
289.1510567
302.4736659
315.8378876
291.8846722
294.158635
314.3034536
299.084591
294.6784265
291.482245
318.7139357
305.2494907
303.5613516
318.1905637
310.8022991
309.4895354
309.436149
320.4601518
313.7795238
314.6463492
325.3351692
316.9642977
302.2864819
287.248035
308.3866549
290.6379973
293.2185218
288.3609372
283.6946431
290.3326625
279.3642805
296.8959976
290.8703111
296.6944401
308.6199298
314.6467119
296.3330146
299.4197012
308.1325766
314.5148328
318.2573795
310.0062332
310.8945841
308.9284311
290.7581523
298.5402896
305.0539869
298.6590497
296.6954992
289.7909656
301.2143483
294.2256272
305.2711517
314.5304031
306.1046047
307.0861219
304.9436523
302.9850279
298.6439738
293.2776
305.2643979
304.3467093
292.0610749
294.5344321
321.0591423
310.7397166
317.0583507
325.3017591
336.1191798
316.5800865
296.6275716
286.1689833
271.2517663
273.7910016
268.1506246
271.2861345
289.5981889
287.790581
294.4125266
284.234429
291.1702941
284.3753403
291.6148695
311.7445323
309.2084486
311.7321875
308.9124962
300.3606921
302.6403529
302.1136908
289.7078939
271.2182167
278.5974717
296.5489052
290.5025661
283.5256267
283.0995817
284.0180572
276.4663449
278.129508
276.8169979
293.3187452
291.3145053
296.4077345
296.8166007
313.0952214
303.7094087
299.9208584
306.569141
293.2922014
288.2051547
292.3847303
294.0225596
293.6046429
303.2617883
292.4431187
305.8611688
296.56116
298.2886196
291.3938296
296.1193898
293.8523938
283.0839938
283.0797999
292.6173615
304.123167
292.5002574
297.4663099
312.5167493
307.4897709
310.5243727
310.662522
291.0373485
292.1359899
295.8745994
304.4915182
297.3142242
303.4564568
289.7075463
283.9755343
289.2662989
272.7941701
258.2437835
281.6578676
306.3798986
304.9707638
310.9170447
308.4469266
308.9287315
318.420181
311.0740476
290.1860961
302.7343643
306.332743
296.9398335
288.9951654
287.8904471
302.7413885
302.1663227
307.3738446
314.4890056
296.930333
303.2350522
309.6252561
295.7275609
295.0940687
297.503232
295.4869928
287.4428717
285.6898208
284.2157222
283.1149945
292.1417294
294.2133269
288.5831701
284.2906242
294.502271
299.6037941
306.5045424
305.2006454
296.5721852
288.1500577
292.4510731
296.2813942
291.0954446
302.2741023
292.2724888
301.1997026
307.6306228
299.7179337
285.4086168
291.4386278
294.7113101
294.1081685
299.0398104
309.5277134
305.3363935
298.9425356
311.2155984
310.2464259
311.164161
316.1241479
298.0290256
284.2170964
301.9605812
299.5324479
306.7795163
296.4558487
297.3641048
311.148925
321.4936156
303.0784512
290.4405633
293.9097406
314.9882352
313.4721064
319.4395699
308.6651118
300.8441004
306.5074957
298.0301609
293.270971
315.0773726
311.7254699
279.1512508
278.1306662
276.6598742
286.3323372
287.470324
281.6273895
284.7350349
278.0934558
291.5017729
297.8308256
299.8188713
312.9922983
303.1448722
292.1265248
285.148365
289.7341897
289.3598
298.9090957
283.1343063
283.0602925
303.7570245
299.613418
298.790945
300.1982756
296.7814604
299.3629694
303.9392649
312.1737758
302.4391158
298.6496915
295.494256
288.0058403
294.1979142
298.0481044
294.4565342
293.5292522
292.4650273
307.1999516
315.8814823
313.1948779
302.1265858
304.5412907
319.0888918
318.6461154
320.8973248
299.5562964
303.7438556
308.7965636
316.9211659
298.3117531
297.0461242
298.4580908
299.7173922
298.0203188
300.7636393
298.11701
300.3717042
297.8771194
297.228833
293.4182456
286.1784555
299.9306542
301.8524893
311.6237349
307.4823992
297.219943
303.7125372
299.3060427
288.9179416
293.2498626
299.567218
297.6449112
296.6541548
316.7019508
323.3763777
327.2718759
313.0174471
326.1376801
310.2848557
300.9619519
303.7469915
292.8100012
301.4040987
284.2335264
309.7536719
322.2871704
309.998445
303.8181704
307.7343061
307.2093668
304.6345914
319.8367232
321.231595
314.0374153
299.6091508
286.8254435
293.1475564
299.2396995
305.7762551
310.8552468
322.1208634
313.504356
318.2419032
331.8817995
318.6206694
315.9673936
301.6485385
296.8467088
291.1078587
306.1473545
318.0311679
313.6640265
306.6167649
307.1875837
308.1018762
296.3712357
304.796106
302.9557655
307.3328223
296.2844496
314.131169
301.5256157
294.5351349
282.3221092
287.7390791
293.6785179
290.3837032
284.2656063
307.7090713
297.8413809
292.3537879
277.7931276
281.5908523
288.146218
297.5680645
295.667732
293.1611077
294.5203614
288.8194936
287.047516
311.204323
316.3141286
306.7832195
287.7745078
287.4386868
301.4720742
305.0192609
297.1921987
299.8583081
292.0722557
284.6790419
289.4430908
294.4965459
292.7658556
294.4524735
293.1248646
297.2202674
299.0966093
308.9990707
315.1065502
325.1803015
303.4238697
303.0671071
309.952665
296.258197
287.2209724
302.2925167
298.6083282
274.754933
283.9174443
293.8438186
289.6296933
303.211299
325.0589426
306.7271161
321.7906528
322.784395
309.4907111
318.4100431
324.815076
302.2879942
312.9158584
315.5557553
309.4078831
305.5144756
306.5504786
291.4957398
285.7502097
289.5644021
288.7601862
289.5924448
283.1095927
284.5632451
291.5198163
309.611071
310.4508349
298.6300233
296.6728374
321.599376
300.2834466
305.3241519
292.0194211
299.5412953
299.1170807
291.8861829
286.0952371
306.2196332
309.7915621
305.1828027
302.0556552
289.8988066
300.9549634
313.6037419
298.9202185
297.9553707
311.4310494
302.5085346
297.6354839
296.7470016
300.398785
297.0725853
286.0183178
284.3814452
292.9382792
280.9390846
278.887612
283.5089678
302.3912254
306.9866608
305.9859761
311.2240807
292.0895936
276.3105189
285.9554682
291.4904875
299.5859654
296.2550688
311.2115559
313.0859551
306.539557
284.8856087
293.5422615
294.601383
287.1779347
279.4141501
274.7834737
287.6172761
299.5067935
296.3182601
287.0637769
299.1676146
305.5640925
300.638637
301.6870777
299.1184205
300.1576136
290.1819076
309.9655626
295.8824833
285.9789637
303.09346
300.1319543
293.1039181
292.959776
294.604315
289.5245517
284.9558239
288.3089143
285.4664048
306.4225452
300.2130816
290.331311
286.3646221
279.0395246
294.291304
296.9369445
307.7882625
312.4473152
317.4534269
311.476539
316.0211193
298.1355866
304.8263738
315.2520719
314.1793518
304.3615243
300.0898848
297.0246992
293.1038825
284.5322871
288.6837615
296.9185096
309.6916848
304.3194779
301.1020474
297.443393
295.8310111
292.9048089
293.1765547
318.8515714
313.5796315
305.243975
298.0872984
281.5650737
279.068959
267.9306902
288.0756953
291.940833
306.0581435
287.8226679
284.0013207
311.9405026
315.1217055
297.9206086
291.481198
293.964859
294.5165587
289.9239968
297.0107065
300.9008083
307.977395
290.0798209
282.4567893
272.8543056
277.8945108
281.3660871
283.9810715
293.2224171
305.528111
296.3215017
298.4943561
295.8702052
318.5762521
311.0835085
304.5684873
310.965541
303.7517016
301.3538043
283.5179488
299.1896664
297.820376
299.6509405
302.928768
290.2442241
300.0727558
300.628151
299.6377504
290.4812307
296.7692899
308.6492365
313.451754
309.2935175
289.3266025
289.6513487
289.9352976
291.1147722
292.9608922
284.8310729
294.0111279
288.7521266
307.295279
297.7497462
287.675627
286.0998067
294.4092229
295.3208749
287.6513825
290.4700404
294.9461103
285.4124229
283.6666907
279.7607822
267.3635535
285.8997452
288.9232778
290.798307
286.195158
291.6110723
297.3149446
308.1070987
317.6788806
307.1385534
319.7200172
323.2675176
314.2263614
306.8893586
299.4443909
291.9095544
292.3141774
299.9675209
307.8229985
297.0806386
312.9023747
299.2191175
298.2058267
315.6247521
304.2593024
290.3983062
302.0414491
314.9596423
301.0353624
313.01857
307.9849906
307.7937536
311.0437428
316.8845411
318.920918
298.3776934
311.986986
292.848408
298.6397608
300.1069322
303.525708
318.0703258
322.9700307
313.6962356
311.3084706
315.8422768
317.0689846
308.8542049
287.1478092
288.7272847
306.8990947
297.4201504
296.8681776
308.2878319
310.7182377
306.3438839
300.8565464
303.3008236
298.2231146
288.2090968
306.2623133
306.1554781
303.6815694
309.421029
314.9688385
307.6333823
308.2925077
309.8174588
317.3322887
303.3628512
292.4684663
296.8162262
301.81612
308.7619155
319.372201
304.9122725
296.9977727
301.9228753
307.9114515
302.6789909
294.5369309
299.1292769
300.5802167
306.6949471
322.570122
318.2558521
305.0855944
301.6298383
302.3555303
294.4678763
300.778835
306.1650578
304.7565557
287.6074301
294.1249116
311.8063304
315.6920161
300.7076027
306.8753798
296.020938
302.0084958
294.2367818
298.8350456
318.5478849
312.2659681
315.8716698
310.0912559
317.6273028
305.5530653
321.4482386
318.4977236
321.7205842
324.5187883
321.7751541
313.8979484
319.2536945
313.5492159
305.5164212
309.7043621
327.2924479
325.9048373
308.9613172
323.880275
320.845852
305.2872234
308.9883729
306.7796997
288.1555135
297.3012477
297.7232861
294.0080213
305.0119925
330.5712785
319.8317205
305.195479
290.9488362
291.2833871
296.0222448
301.2314129
300.812057
298.8269282
290.9167326
282.2535958
286.0698545
308.0149825
322.752698
307.3681012
297.0507718
309.8552089
313.4517464
295.447887
287.0624197
298.5532779
312.4661719
300.3965826
292.5469813
295.6453499
314.1289783
314.065281
312.4900718
293.405407
291.1408011
294.2835752
297.43306
295.4797722
297.9718155
306.2421924
300.2032231
296.2326687
282.2147587
292.8168283
303.2522306
299.3513525
290.6563936
302.6010549
306.2985378
301.794544
301.5962855
287.5936271
296.1015955
297.0574767
296.1838806
287.2608693
292.8600928
308.6062204
306.0960487
290.7385389
283.6170499
288.9767516
281.5393037
289.5241726
287.9432233
296.6665105
305.9709201
301.0099972
299.7258931
299.6180143
287.9446829
278.1571151
293.1385694
315.2783614
327.6455573
314.0136462
293.2454674
286.2750949
294.3252742
285.3408478
285.4432199
316.3727864
312.6757761
311.3368292
302.6639038
302.7612178
313.2355032
326.190682
306.529938
289.751246
285.7952234
295.696847
282.4535366
282.4328042
298.6965375
302.1428467
305.129512
303.4826895
296.3839062
299.4966374
309.2917754
293.4269759
302.1800346
302.3760685
298.9202633
309.0133706
321.5634541
312.2434892
315.2090208
325.7463787
335.264268
328.7840229
322.3918874
304.4115019
282.1826446
274.0884329
269.5064881
301.532386
305.049422
307.7496407
304.1257431
288.3287204
293.8093123
301.2433954
298.8775798
299.9540754
311.0896257
317.6048871
298.1739266
290.2745741
304.4076546
296.3891185
291.3317357
286.9368644
296.7585111
297.4068488
293.6562104
288.8497541
290.9608338
295.0294733
292.6306364
291.706898
302.3266901
298.7609526
305.9626283
317.2837003
309.0273503
320.2250759
319.1147888
316.09851
307.5625051
301.7234651
302.3236617
300.7623313
295.8803025
296.6133176
296.4188391
296.4630559
306.3542523
301.130508
291.9622941
303.449172
308.2043431
290.5638257
284.3817829
285.823425
299.4313209
304.7177733
306.8266114
293.9736604
299.1464685
296.7334169
301.9379888
311.317597
317.5287605
307.256139
307.2221098
315.8767318
306.3089299
309.9035166
322.6149046
321.5794312
317.5431399
315.6311074
315.6811259
301.3927141
300.3141288
317.6999991
319.410632
303.2384656
304.9934279
306.9619506
302.5095102
296.2733685
290.4200392
286.5069793
300.0908091
292.8404438
311.4885777
300.7365737
309.4182605
294.5854198
302.8133527
297.1873
309.4166807
305.1201467
297.6636394
289.0395943
276.9816918
277.9569552
280.5526154
288.6605334
294.6677812
292.1657194
292.7161771
302.0689054
297.4586328
293.7549932
313.8670391
321.5948207
302.9962889
314.3499846
307.3371106
310.0895887
310.4101414
315.6165139
307.4296388
307.2443873
301.1119796
289.9108629
299.8948634
302.9047502
299.4794886
296.3515906
296.6279943
311.3183472
307.7789759
306.2378388
289.1681959
298.2907684
306.4622587
314.2734411
313.5182998
304.4709495
295.4512518
294.9729985
292.0672436
305.7050328
315.386474
312.019383
297.818234
294.2628206
302.2798595
308.384919
295.1057073
282.1407972
291.2514972
301.4934042
316.0898613
323.0442435
340.4234481
312.205789
332.0310113
329.8401437
324.624829
330.4524395
337.102497
314.5693954
315.7304453
314.9314266
307.239366
313.408828
296.7307491
300.9020384
303.0556094
296.7530336
294.1141842
286.451127
285.5428059
297.9284778
310.988209
299.6277074
299.2473335
300.0651025
299.8529214
305.924504
319.7347766
312.9701238
323.0271202
312.4229939
312.2121504
328.3235222
317.6994
290.1862122
303.4360131
300.5300526
312.9244027
310.1288067
307.3089516
320.8696293
293.6120003
306.0975428
304.6990886
320.738396
310.0565763
305.0610154
314.5640888
328.4493746
320.1972622
321.7519572
316.1660636
315.0232533
310.9077855
339.5882061
335.3101569
326.629894
316.6740529
325.6902472
318.3776849
301.9261316
309.8571355
306.1087651
301.276334
301.6593153
295.6778043
305.3601694
308.8453381
310.5610795
311.0116309
322.5664961
337.9164224
321.2750493
335.8632364
326.6847234
324.4448618
330.0836141
322.7770115
299.022638
295.2319911
305.2675532
294.7045242
307.5924143
316.0522445
322.409645
309.6554239
291.8146509
288.3146088
286.8413975
299.8120631
306.0260765
321.8753001
320.7284808
337.5719748
348.1143266
334.4016837
344.3511324
312.9856358
307.1487286
310.1366578
311.4572248
315.2227757
291.7801644
292.2928908
297.7617824
312.8055887
308.240403
297.0163734
294.9697693
291.4548588
298.0368304
307.8027481
318.350594
304.4532492
302.796353
311.7050482
293.008491
296.2640698
293.7959904
274.3937316
277.635696
291.1931252
291.287089
288.3724426
280.0855593
287.3737706
280.0900368
296.1915028
297.6033387
309.1244465
302.6550109
301.4056298
312.151609
305.731262
314.8410487
319.1040239
308.0524579
319.0775118
294.9251376
308.7037733
306.8997655
281.5363529
295.9289992
297.2601511
294.118393
292.8115588
275.2019704
267.083692
269.1379932
280.6090537
310.8575288
316.0777799
312.6875672
311.2014277
300.5627097
306.223649
320.0622033
330.2180037
311.7027178
300.7711055
292.7840943
301.1432445
301.2318885
299.0537413
289.7495281
292.937635
302.4656294
293.1596156
295.5389822
304.6069843
299.2101933
290.5219757
314.7927919
294.5267844
287.2546866
282.4583288
281.953517
299.0763449
309.1649192
317.6891495
296.9648587
288.2550105
303.8174228
307.7563051
299.2298093
289.3836373
287.0439257
291.8904154
304.6897766
309.8317544
304.7017959
293.4682389
285.7911684
290.1864063
298.3480894
299.8947912
302.5652554
294.0229315
286.6920182
278.9174906
288.6233379
293.0413099
288.863723
298.0925724
297.4616938
288.0856849
307.0414962
303.0661816
300.1426046
296.5695452
293.5723083
288.4075173
282.0982173
272.9129053
280.8427566