/*--------------------------------*- C++ -*----------------------------------*\
| =========                 |                                                 |
| \\      /  F ield         | OpenFOAM: The Open Source CFD Toolbox           |
|  \\    /   O peration     | Version:  2.4.0-MNF                             |
|   \\  /    A nd           | Web:      www.OpenFOAM.org                      |
|    \\/     M anipulation  |                                                 |
\*---------------------------------------------------------------------------*/
FoamFile
{
    version     2.0;
    format      ascii;
    class       volScalarField;
    location    "0.0007";
    object      translationalT_mixture;
}
// * * * * * * * * * * * * * * * * * * * * * * * * * * * * * * * * * * * * * //

dimensions      [0 0 0 1 0 0 0];

internalField   nonuniform List<scalar> 
5120
(
300.8979359
295.763355
299.8715929
292.9775677
297.0045672
291.0894805
297.8675346
299.7613512
284.8661796
284.2541532
277.3395696
279.6087466
271.0598877
283.0507121
299.9930551
291.4389086
286.4544604
289.4519721
299.7434985
301.7594488
290.3162773
298.3855442
306.7798379
300.3667538
294.9567786
319.9151378
307.0212434
306.0827663
314.9379403
320.1192036
302.7704226
293.0677517
287.8761122
284.8601783
286.6218701
290.7857597
302.671609
309.388033
289.2155331
276.251909
296.6289224
301.5056888
298.4743966
299.7164004
306.6366982
297.9715576
292.8624991
292.5716279
292.2072836
296.3491192
289.4002426
291.7409844
300.91653
296.2438245
304.8804732
305.2798434
310.1177219
307.9528145
317.5186937
308.4424972
308.5735441
303.4860996
304.9089378
308.8761429
301.7652906
300.040871
287.0395946
286.5385637
284.1323755
300.9697486
299.7457681
305.4831232
312.9696857
316.1110343
304.3622765
293.6208292
297.6289396
286.0222104
291.7683285
316.399469
291.4396588
296.4213395
316.4674003
310.6223221
291.6583372
298.6658362
305.303071
305.1489457
296.8870697
302.7502387
307.7522138
296.1098421
300.8943113
291.3960072
290.1724114
276.0164215
287.2024074
302.3069339
314.2473589
303.7730686
315.6642899
314.012947
306.7706362
304.3822569
301.8081687
306.8939687
301.1984677
296.6279482
293.2549489
273.1770872
281.9551314
296.5310049
299.6462689
312.3097078
310.9673612
315.7912514
312.0131845
301.6292372
310.0261967
312.5448551
294.1451763
304.5437323
291.555045
295.4131728
295.4771361
300.84931
297.1377198
293.8266714
302.6762531
320.0470011
306.7237041
295.8667042
304.158542
306.4063067
291.3373692
294.2062788
298.7842403
310.8011553
312.7936992
304.1577473
287.2373619
297.6667417
309.0416074
304.6071294
305.0213543
307.2893977
317.128993
314.0861443
316.6025216
319.9997205
327.0367696
315.2561785
299.8674688
297.6341442
319.7807397
313.0209107
295.5903082
299.3726276
312.3666331
300.4159633
309.8450313
313.8280078
303.8935126
299.2580604
296.3254957
305.5895483
317.2530188
328.1888708
318.9143197
304.2968511
296.0141977
295.7687496
304.8240553
294.0243968
293.147049
297.6111744
313.3478609
308.8480398
293.9492084
303.9261418
309.2010313
305.0343463
288.9131544
295.4647124
294.0110533
290.7596098
292.217306
298.2929138
303.9326243
314.2119022
297.388696
291.5909921
295.8009961
297.295278
299.5499014
302.949472
299.9480376
307.2424291
308.6299207
309.0910676
307.0132768
303.0915722
300.9513311
291.8295759
299.0276014
317.5957275
323.6840446
315.3165797
301.2319575
310.4981773
312.1090729
308.5341682
305.7477839
305.9062239
297.1536871
297.2363059
298.8129683
299.9584787
287.3565487
303.6547024
299.52913
297.6579562
312.2550357
313.8103382
316.6700069
296.7374967
290.8344372
294.6776151
303.9579002
304.0000648
293.1047826
291.0765761
287.4756737
288.9889483
303.1436814
305.4216294
301.1783428
303.3163249
303.9245398
285.9494386
298.8341564
307.3280867
301.6415263
305.9584378
315.281925
318.3696054
307.5430463
295.7091925
302.9856466
299.0224946
288.7199063
309.0481641
319.5996655
313.6116038
312.1450505
316.7569134
305.8735529
303.9595958
304.1225915
303.7746924
294.1815732
296.0032106
305.1273579
296.8481866
286.7963789
300.6152349
301.7720649
310.048759
320.6821762
308.8055992
299.4803966
306.7126358
307.6706326
300.7501496
312.8990172
301.2475064
306.1410778
295.1454414
300.9852412
295.3319969
293.8999102
302.1446054
296.0038943
305.7880435
311.5831217
296.1182211
291.5173504
303.0178656
309.5833042
312.2822271
307.8391172
312.1846173
309.8816042
318.4766306
303.5748229
314.998739
304.4247665
307.5668336
298.0394564
295.3593267
300.1155339
301.3240319
297.4491397
293.1029607
285.5404072
295.1461209
303.3310877
308.7202917
304.7843561
293.984746
294.3002896
300.1089858
297.6615574
297.9062443
286.8737265
285.3863434
282.2768808
286.0221783
292.4079713
293.4592423
300.2221572
305.2328455
305.8648247
306.802114
296.1370631
294.7540705
275.600118
288.2733757
279.6630964
286.0681158
294.3853039
307.9663699
300.5971356
303.1888144
295.8724523
291.5460595
287.445111
300.483638
295.9079857
286.3920582
318.8901737
305.5559895
304.5383101
302.1167426
293.7056792
287.6234708
291.9901035
287.4422859
291.3964809
292.4304655
287.7945066
291.4774153
293.176377
296.556377
291.6559247
288.1637546
314.0965264
301.7075107
297.2943647
302.4162934
283.2554114
287.9953126
290.7783602
298.4304801
311.3122818
311.3756371
308.6575413
310.0809314
317.3006961
300.7467395
294.5141229
293.7250621
284.2943654
295.3634842
296.2311304
303.4912284
298.9743542
290.0408001
283.4608104
278.7527485
304.5059966
305.4730203
290.5433234
298.7459958
296.5871377
301.8967845
300.2701435
300.0320868
304.6498135
298.6497564
293.5108631
291.5156335
284.7989149
280.9161801
277.1938391
285.1364949
287.0544615
295.5654608
295.6162253
289.9318911
306.2078699
299.5067739
291.2089713
278.8535153
285.9407947
282.0061447
284.6544829
289.3615142
291.6941696
287.4680271
296.8367926
288.1515666
291.6904484
295.4543297
289.5376296
298.1412528
284.4554012
279.2306034
286.3027957
298.8844244
304.7002129
310.7389648
299.2295785
291.7502129
298.9310467
294.1543619
297.4066646
277.4407604
292.0173306
296.2104592
302.1647916
310.0111752
307.4594833
317.8869087
309.206183
311.7955814
301.6080966
291.2068516
289.2231998
292.8368275
287.7879095
284.7291766
293.8681348
294.4532836
302.1080733
302.6759158
303.5602982
306.3039812
302.2864447
306.6201688
309.2142448
299.4723547
302.1397376
296.2479867
304.2633614
295.6701676
301.588759
284.6493886
290.9213293
295.6322434
313.6691935
313.5954501
306.5299871
304.9059907
308.5613242
298.0643708
300.4956335
302.946459
307.1929043
301.3545575
305.2553159
308.3222019
315.4407006
307.5278673
311.7143328
308.6358605
306.6746029
310.2142385
297.5225662
297.531375
292.2778422
303.44607
305.206687
288.6926769
307.205028
303.4859155
303.2937684
306.7358811
313.1308516
292.5105659
297.7762532
308.8411394
297.4576147
311.5909991
318.4131364
318.0189474
314.2059257
298.2569756
297.8245872
300.8378067
296.3401834
294.6694523
317.4796806
320.4184413
297.1745799
296.3434508
298.8308667
292.4611606
299.2129435
304.8259701
306.2655709
321.5424532
302.9560464
301.6811803
304.3533064
295.730711
304.2167393
308.0444157
311.5937986
304.1634377
297.2167414
278.5712127
280.1397271
291.8643026
298.144509
292.5658645
292.0595081
287.1184247
290.9849539
290.3972059
310.8605032
296.8292969
289.4205405
304.5204836
306.7118936
299.0305843
291.9360702
280.6217155
293.3292329
305.0625233
283.5573935
308.8464785
302.9525224
296.3326433
286.3203932
298.3346077
298.0760458
293.5232335
290.0823753
287.2085633
294.3294946
291.8886713
299.6897225
300.3004479
295.90654
281.5372555
286.2484142
270.6548643
260.6588803
266.6944896
300.7300349
298.5367473
302.8388077
318.0777741
317.7063771
319.1928747
325.5122086
308.2523008
296.262045
301.806986
297.4615647
306.9454482
294.4367362
283.4202229
288.0168458
290.8323776
297.1628579
297.0761471
302.441216
313.1213397
310.7789
303.6032906
299.9009031
304.014257
308.8962961
314.2574066
321.6795575
307.0143761
303.246075
305.136403
310.3873678
300.4703456
297.6610646
305.1400403
301.6191419
309.2903264
305.7772207
305.9829725
309.550794
313.1632269
303.2004268
317.7091523
314.6889693
312.1816349
305.0656174
301.1488875
308.0214227
305.1519242
309.1322817
307.4619097
312.2939116
297.606206
321.9148254
317.6652036
299.6965811
298.8751459
291.4674077
304.15989
331.7522156
332.6898606
308.2372754
298.2378995
294.3216607
284.4081375
292.9211796
287.385366
302.1696361
298.2969586
294.8577218
294.2442017
293.1648725
303.4452126
304.9719035
296.6592757
295.0698268
298.6170107
298.0952562
293.8908495
300.121464
296.6046332
289.389429
288.5764263
287.5641418
299.2951617
298.2874707
296.1788934
301.201416
304.1759028
312.196546
314.1679898
308.9975763
312.6891733
316.5774484
314.9179225
286.5418992
282.4614248
282.0753059
292.0483823
302.0203954
300.1785864
283.25936
285.995323
289.7005829
302.8410888
311.5185402
316.0990352
303.251545
306.6570316
309.7955205
298.5465677
300.7759339
296.3935316
308.17169
312.1787807
321.3793908
312.7705943
299.2744713
289.1393284
299.6786044
295.6116454
297.369649
283.3882621
284.7195232
294.2722248
293.5120604
293.1330461
300.999193
301.0939177
286.040152
294.7638118
291.1435005
303.8308339
297.5186291
293.7070494
289.4479229
300.4989806
288.1581286
292.5207513
300.7482166
301.3960424
296.8216034
293.5444732
286.2679561
276.2482393
284.6536121
289.7234655
278.4554838
282.7550136
289.5633154
298.0105597
287.2078579
285.3226693
295.4608132
300.5252057
311.8097811
307.189
314.5663991
315.6796363
322.3099163
315.5175491
299.7071292
289.4563267
292.0341624
272.4516208
277.2994447
282.0822612
295.7193712
296.8375567
294.0858771
297.2353799
293.8270889
287.0664149
285.6629777
282.4256902
298.1976369
291.7125185
294.4250021
299.1603557
299.5654561
291.3822932
288.3242889
291.0082165
286.9103602
296.3580046
297.9048839
298.2470981
292.4331914
301.7121765
309.1109929
314.0956762
315.119468
304.985463
293.4044741
287.7818778
271.7426351
279.2919678
284.9840828
297.7441483
288.3293774
289.2535086
288.1674372
287.4311573
299.3007579
309.8246876
307.0545457
296.3582357
291.7172566
319.0066268
297.5593696
296.0935752
296.9307209
304.70569
308.5334752
302.4062005
307.5418554
299.1132714
294.8889036
309.4902397
315.8249498
293.1458427
298.3433528
301.3619456
291.4399603
293.7518562
303.7030833
296.4824242
279.6821894
279.8846438
281.0501568
284.6635017
296.4401044
295.9614833
292.3403082
303.3186187
296.5247195
292.8011454
301.0042466
286.1762708
282.2864582
290.1331502
315.6511992
301.0500836
312.217145
311.1241766
301.0293772
307.1533883
305.2085
308.7893914
301.8823217
311.7406266
303.1184934
300.8662835
303.4700985
300.926631
299.4775366
288.8007105
289.5548146
296.2088061
308.2708882
310.0960225
302.4223961
306.1933492
302.604152
297.7571968
304.390056
292.7939523
285.3772384
289.2166469
289.8138461
285.4430758
300.8536165
310.6526893
311.9718033
304.3252313
306.0602806
312.1629161
309.2101097
316.7926002
299.6767008
293.8102797
305.6758192
304.3054803
303.5189936
302.1265078
301.2810294
307.721195
303.8770437
295.1302967
310.4773675
309.1682711
291.47374
302.1647172
307.9588523
306.7642262
302.0676581
296.8440735
312.9340569
314.2430811
323.1795865
316.2196258
333.3507541
313.9553805
311.2163183
309.2021494
310.5815877
301.5700027
315.4984133
303.7858993
304.4487919
292.4473735
298.9715201
309.6296246
307.6034223
310.3538951
316.0283083
331.5027174
308.8732154
302.4877315
294.7061875
302.5592109
293.4699486
311.2513736
294.8757805
290.9457176
288.1241249
297.4601177
293.289897
300.8351393
295.3977248
288.7177153
296.4164711
294.6820061
292.9768188
292.2993615
274.3662506
268.6732363
297.7259651
305.2120192
309.9106443
304.405836
308.5240299
293.3428923
292.3841985
286.6780054
287.0580363
279.8319742
272.5909486
299.9138361
310.6368744
312.4003195
294.2478878
301.7444986
303.1573122
295.3681608
306.3623583
298.3901726
301.0588758
310.099914
303.8014362
300.2950738
305.5329512
294.6444328
298.9622134
302.9903526
299.6886215
297.9752384
318.7637803
328.2191844
316.484057
309.6093046
306.875737
303.0972921
283.5937975
284.4440961
283.5135465
286.7807605
297.5390196
291.9754266
295.7654155
295.956876
288.4212968
287.0292265
311.4504229
304.3234776
300.0025043
291.0178632
281.7078542
292.1999761
297.8556779
302.311056
317.9976353
325.7233413
312.9997578
304.3648544
314.8768601
321.2344036
318.4131577
303.4915099
303.693
300.3562042
300.6613221
292.2330186
285.7637634
274.7131706
281.1185951
289.5883845
298.0961714
306.0778996
303.4305302
286.9681478
293.8031857
314.3730233
300.477977
299.2499529
299.0419456
287.8633345
290.9763228
284.6414611
295.8154405
300.6828379
303.3066456
307.5625376
310.450347
306.5026447
308.1594225
307.9307513
311.5185187
315.8727089
315.5704325
326.3823526
326.4008446
305.3970153
310.3404733
306.4573965
304.7471579
300.6360145
297.0915175
310.8030629
301.3650638
301.4673387
283.3724724
283.1371192
298.5060566
301.2379469
292.2098016
290.5881243
300.5979981
306.6425693
311.7434839
301.7359903
312.4488233
311.099724
300.451481
292.5815458
304.2968141
308.9174823
300.4690205
288.1681323
287.6897471
285.939373
304.0456481
316.9472596
312.3656593
311.236018
301.6915498
309.5008055
304.1554393
312.4167637
294.9189913
292.5010278
282.9462242
291.5244868
296.4581759
294.8735941
290.3217006
302.2312223
312.4642996
305.7808938
299.6331037
296.5958309
307.6104846
291.3467089
296.2456833
297.0622648
293.5193172
287.7049902
293.3519369
319.2017117
319.6715286
312.6017243
303.0790814
299.0486547
298.8277752
296.3237321
300.7181185
302.2214137
297.0998693
286.0432347
294.395281
298.794141
280.7250709
282.9693637
284.2231923
285.9112909
293.8042124
300.4091822
288.8331066
281.104668
278.1279271
283.080189
302.1982499
310.5359647
310.12076
295.0217434
281.7420918
294.9290223
293.2650402
311.5893792
298.6222132
279.0365331
296.9425093
300.9902366
309.8984851
314.2836011
305.2583557
310.2046971
322.670944
308.7435153
310.1786266
299.5482024
295.1513731
291.865739
296.9174137
284.6860261
291.0600677
288.9451352
301.6127378
298.8127032
300.8260909
307.6224096
303.9380863
291.668383
284.3747004
283.1338289
279.9729658
285.7097392
298.7765765
312.7284695
306.9133795
305.9252264
297.2743415
298.2560117
297.4504723
297.3860032
306.9285623
300.7311911
293.3681201
291.9062763
285.6057728
293.1879631
303.498232
306.0858951
292.8328946
288.3555114
280.5135241
282.7604655
293.9224001
302.412839
299.7271475
301.8221108
309.5726933
302.8159922
290.7131618
285.2422968
281.1214958
295.5190593
299.2126934
293.4204442
295.0626002
297.0357891
291.7678478
289.2674589
287.90053
297.0168454
283.9774859
271.5075276
270.6914386
282.0792709
287.0646408
297.5526308
295.1677218
292.2827065
290.5785329
302.3039913
299.0128887
297.2685909
289.4563786
297.8288564
296.8368689
293.4480967
268.695112
285.7125769
285.0553843
283.7269971
297.9820353
301.9054051
304.1435822
309.413723
308.0476861
309.147675
302.0513418
295.9385983
291.782696
299.2050603
301.1545597
298.9689172
309.4190686
299.7531835
288.1336987
274.3225712
294.549137
296.1262702
291.5010621
292.1087263
284.1086335
309.4451915
318.32257
314.1123513
306.6205578
316.4100034
315.1549385
304.7585864
286.5555425
296.6797016
295.9399661
291.1300865
296.5721035
309.466107
297.0201377
305.6980395
289.6041315
295.4594304
305.4196471
309.5186266
305.7833498
301.3121017
294.7841096
285.3033376
288.0270414
300.6171651
291.442021
294.9362007
296.1915609
286.8274593
300.7302222
295.4186041
289.8202503
286.9708842
297.4900281
303.5944002
316.2039755
312.0271116
310.4246612
300.8158184
294.7837706
300.0305104
300.4389181
294.9924826
290.7798848
298.6368919
298.2804936
301.3930431
289.6927491
305.4782683
290.0426001
294.6269078
300.7556379
299.1373507
302.1222619
299.4017422
304.2223476
314.0437281
291.2491231
295.858199
292.3076509
315.4239475
301.0607433
302.2856725
298.5304859
289.4150923
290.161026
285.7737654
294.8587831
288.1561591
294.7178192
294.7513352
296.170887
292.9266074
298.0797958
307.4465103
291.7949119
298.0023237
315.9661149
298.5840578
301.1694352
300.3444371
315.7342091
306.459297
308.0689559
314.0127174
304.0953745
299.1625449
299.5752786
306.537298
301.8987114
303.7364004
319.7340133
318.5571832
310.1686484
290.042709
305.777361
297.7460477
299.0296245
298.8896355
297.8339184
303.8293279
287.4893563
296.9905094
293.5560788
301.208451
311.8837872
313.5790229
296.0099006
308.2681333
305.6556075
313.1291344
314.2948196
309.6810907
311.8548355
310.2453985
299.6994828
296.8009656
302.1447302
299.1092876
302.5173806
296.5122933
303.5068159
299.2626834
296.3474119
303.633017
306.1613407
312.2622534
301.829678
294.5464673
293.1142228
288.522421
301.1473583
302.132838
296.0177841
300.9421351
319.0611554
319.4488165
324.8422914
327.5650052
326.5475618
310.7067997
297.024123
287.3359821
282.8262024
283.6734303
276.8007727
273.4579734
287.9099864
289.5554949
296.5418944
289.1380679
294.0716903
284.5495756
294.2764871
311.7866627
303.1427745
309.1986303
310.4596325
303.8157336
302.4478052
305.1128745
292.3505065
277.5004342
283.2608607
293.4224273
286.5616179
286.0463604
288.8568435
289.2187486
288.6837068
289.5370574
282.9827868
293.4334712
291.0146268
295.1626555
303.2375707
313.0540697
296.4321358
296.8284212
304.4448097
297.6381259
290.2089604
296.1304138
293.1812916
292.4914249
300.4102423
289.0786307
301.1880481
288.727134
285.5422268
278.7255257
282.5779657
284.0524393
279.4344393
285.7212799
294.0647857
299.1307604
291.8230036
298.0828423
312.8355185
305.6291313
309.638131
310.5924874
294.9669846
294.5838258
298.5956173
305.2731569
294.8199699
306.8950675
297.564882
290.4377721
296.528988
284.5351075
273.1265883
290.3795117
292.3366143
297.83076
309.9750373
312.2143355
316.3193523
323.0420275
314.8572508
295.0450111
305.2568366
303.1930499
296.9542348
281.8055062
286.2662917
301.3988407
301.6819339
305.7855394
311.0319542
292.9308917
296.908444
297.0557953
298.4407449
294.3977964
301.9789274
298.6850653
290.1742759
285.7371698
281.9345459
282.6177592
291.6384106
293.4563246
281.1537637
281.2571972
291.2578925
300.7904248
309.1570358
301.2934729
295.2692855
288.0213601
294.4220075
299.3629537
288.9626688
304.0550452
297.5530926
302.6359811
304.666083
298.4268046
285.8462797
283.5863025
285.7571505
287.1888033
292.9829287
298.8792922
297.5474238
295.5482674
303.5083791
305.013478
305.5428706
308.5174585
295.981314
287.0292152
300.9152311
297.9809861
305.9953421
298.1214468
298.0147293
306.1973891
314.4362234
302.698684
286.1497169
290.7830761
310.5747696
310.0538101
313.0909068
304.0692978
301.8663584
303.9311229
301.1641557
295.3170651
310.8227835
309.0981662
285.2666348
276.9612841
276.1962825
289.3033186
288.488025
285.9426224
284.6074088
274.5367445
290.7874707
294.584472
290.850935
303.5331996
299.1711046
295.2681002
287.0815261
294.4734913
287.7389659
298.8127437
286.7856945
285.5791777
296.5759446
300.4265415
301.4748198
299.0431358
297.9410651
295.2825679
307.6470426
310.6755103
300.1259405
299.7265645
296.2736887
288.0783474
293.6010252
299.257667
293.033622
291.7643545
293.2695682
305.4812276
309.2416267
305.7197703
303.5420108
307.7592339
318.2699133
320.3958185
318.3048358
304.8014172
303.6753912
311.8336584
308.458515
296.0353843
303.4763408
308.3189428
306.2907892
300.4071079
303.7558499
300.0311098
297.8274738
298.6026806
296.5734177
291.3753527
302.2440729
302.7550463
299.6680868
306.6598209
311.0761184
299.067253
296.1289591
292.2804024
289.969326
289.5454015
297.6944689
293.455172
298.8247582
308.6954456
311.5328594
322.3101456
310.074728
325.1529335
311.762327
306.8049044
315.4213601
315.2993374
315.6527877
298.7419812
309.1714814
311.512151
309.6898154
309.598982
299.9112352
300.2698239
300.9809856
313.9297754
319.6195382
317.8224416
301.0705634
288.8767988
291.1089944
303.803688
309.3798562
314.3132074
323.9449411
314.073757
315.855469
328.8802971
313.2714598
315.7272439
312.6774234
304.8871828
310.3081139
318.9354497
322.3449854
311.4091154
301.2396839
304.3569034
311.4351731
307.324818
311.5903267
304.6232925
303.0960957
301.9424997
312.6149239
306.3518692
303.3059789
291.1436617
294.7480171
297.0369534
288.9791991
286.6781225
300.1034662
295.0626923
296.7342266
282.3874204
278.9902234
289.7322571
299.7226418
294.6532718
294.0016778
291.1777814
286.2189749
294.2393027
306.6450053
308.5349418
296.0859295
281.2078834
284.8939584
295.90515
305.552263
291.2458658
295.9663085
285.6910447
284.9017592
285.6619313
290.0397164
287.0592738
293.0067283
289.9544922
298.3605855
305.9893856
313.0370791
313.7645761
318.6205284
298.1615716
300.7049009
307.331323
298.0738783
285.1127624
297.2293442
291.5506612
275.1985103
276.8930057
283.8503288
283.8195528
303.7023232
321.1498663
304.2319229
314.3183526
315.1964606
305.6463595
308.6336643
315.4384798
300.5252026
303.1924151
305.7979734
303.8633362
310.9754332
310.3158033
293.631464
292.5521704
289.7863277
288.4945931
292.3458896
292.0350733
287.897263
299.3341502
308.9296688
303.9493578
292.8109543
292.1208055
321.7762161
303.7674935
292.8237577
287.037648
297.6078167
293.5944119
281.988627
277.513613
298.7694637
304.6783044
300.119317
297.6147452
287.9840481
299.0738068
315.6011449
301.2025101
299.9356169
304.8347453
303.555124
292.820571
288.7092321
291.8248687
290.5312418
282.3669516
283.9076525
285.0832395
285.3638861
279.5061985
281.5807477
299.3806509
306.8093566
307.9165493
311.178901
291.1615995
275.6230566
283.8343429
291.6603838
301.7016893
294.0841937
302.6643543
299.6551175
299.6056776
294.8350258
302.8882459
301.9572957
296.921569
284.7738237
285.4855833
293.956865
301.6135356
295.3433747
286.9311334
295.2827656
303.7737428
300.7817521
300.9614365
298.2613112
297.6095882
285.8619774
304.3851849
294.6798463
291.9736745
303.5456941
303.7971741
295.0566568
295.936156
294.2161979
288.0645485
291.4183237
290.8642248
285.780111
310.5652834
304.2323745
295.1724591
298.6272484
292.0030358
298.2770739
300.1757807
305.7416083
307.7799986
307.4319999
305.1038523
305.9188531
297.8683913
311.0186957
313.2263612
311.459526
306.4569673
302.6908342
294.7783286
290.1605479
288.785358
293.9696843
296.7262327
308.5251815
300.7083607
298.1952258
293.3801331
291.6472376
290.8405563
296.2252299
311.5164519
318.1839614
301.547973
292.1622563
284.919806
275.1746268
271.8966319
288.2469977
293.7573109
303.4150801
288.99195
280.040031
299.7029753
304.0926719
293.5145338
289.6936959
289.0962447
286.8198935
284.0967049
293.6994885
303.4678992
300.7609053
293.0139942
290.2004835
280.797484
283.4046737
287.8761157
290.4348872
296.3377672
299.466766
290.2390977
300.8919067
304.0214606
314.0463224
303.9606422
295.8750315
301.2507846
302.2835596
303.2753165
282.3842534
295.1408623
304.4438018
304.003954
307.4846251
299.8112949
306.1266521
307.5952511
302.5396177
300.7647814
298.8603467
297.4987984
300.3590807
299.5573341
282.8829539
280.280465
287.7581585
286.2638196
282.8444152
284.6704487
296.107469
291.2721902
316.6343703
303.3700625
296.4244458
291.3051812
303.983463
305.4493954
296.2768897
295.8375731
303.9347406
294.3019552
293.8226574
287.5541984
277.3911989
289.0409339
290.6308291
302.2440186
297.4955605
292.9191542
298.7795504
314.9862577
314.757314
306.1604973
318.2610091
318.3914676
311.3944071
307.0089042
300.540283
300.5189518
300.2318214
306.0152389
310.4856062
299.0572027
308.3588962
298.4356146
295.6895829
309.1956542
301.1111253
292.238002
305.2768462
311.4694662
300.4157664
313.9867318
307.7237417
310.5784848
312.8273725
320.6589855
324.4569229
300.1853835
305.8529048
296.1827865
300.6591893
302.1234378
303.1761919
318.3803786
323.0218541
312.8627591
309.9256736
313.0791363
316.732417
314.1314939
292.3238531
294.54735
316.226797
308.8449067
305.5244353
311.0301909
314.4439357
314.2884605
305.0718238
298.6628331
296.7065999
294.8681192
306.2451026
305.5941932
306.051373
316.422541
317.3488246
311.0794199
305.0670793
308.9155378
316.1569087
306.5440299
296.998361
302.1284844
314.5126264
310.9067944
318.7200548
313.9620873
312.1515884
310.1226497
305.3021461
303.8420365
299.3584907
304.122457
301.5835555
308.6447503
323.7565154
319.1565313
306.1361371
303.53554
300.5501704
299.4233064
309.443478
312.0032539
303.884205
293.7766317
297.9171368
318.0470718
322.5142582
311.8341544
307.810339
298.1357671
302.9193551
291.6959517
300.7784046
316.5992846
309.6054825
310.4290437
308.879617
308.2561722
311.6939514
330.4733017
329.0813075
330.029972
329.6541667
328.9457775
316.003247
317.6616743
307.5730754
303.1833995
302.7929007
322.9823185
313.9930266
301.4949958
314.6728104
311.6226743
300.8090806
308.9474043
305.4396273
293.3098343
306.2124061
305.8710968
301.1336406
305.4660594
322.0392036
308.4502364
292.966144
279.1144006
283.6393794
292.797327
297.6367666
301.3439577
306.5860541
300.8688665
290.5751307
293.0346839
309.8629194
323.5525188
312.5985556
309.7387469
308.5673607
311.2610973
291.286551
280.2534084
294.535742
306.6424852
295.382418
287.9201687
297.6208248
307.9915029
307.6446913
305.8143314
287.0313566
286.0347768
292.9716896
303.4614766
304.5779647
300.7313455
308.4201915
303.0158641
290.8691716
278.3522049
287.3410366
303.3799472
301.469205
297.024756
301.3722412
302.6506521
299.0220982
299.7585445
292.3351671
294.7935118
294.0401648
297.15562
289.3394995
287.2992531
303.297648
307.7629169
292.2808846
281.5601828
290.6357491
286.479552
297.759013
291.9393779
296.3450982
294.91304
295.1975429
294.7014914
294.0707065
287.1002637
283.1396549
288.5319893
307.1336895
317.8835308
300.3518864
290.2985456
292.4760152
297.687649
291.3544051
288.5687096
307.1641323
303.1407545
306.0194109
300.2987969
302.2268705
305.693341
315.9034849
302.2129355
293.7754643
286.935483
292.4899942
285.1711171
281.952673
296.601144
298.6199014
301.9170168
300.6022907
290.8313496
297.4740828
303.2325226
296.5600661
305.688286
299.8219975
298.9705106
308.1782732
318.4843584
314.4474296
316.1657582
328.0434554
337.2762056
326.3264238
319.7489809
308.4308946
288.7821735
287.1712945
283.314969
311.9530292
315.2873344
313.3658071
311.9362479
293.8856285
294.7468647
299.451792
293.1128794
297.6651027
298.1309866
302.2678218
295.11249
288.321849
297.8929272
297.0493994
288.6785921
291.2401071
300.3670804
300.8066064
296.1649452
293.353733
291.8841502
299.5795222
299.6550616
297.2946772
304.3415908
302.3988725
311.3752429
328.5876672
317.6624924
316.5281755
316.8031449
319.201915
316.4518315
307.4938346
306.2131884
300.4210289
291.1029817
291.4523728
292.8876963
296.2017723
304.391902
302.0599722
292.0885965
299.3278492
308.4544404
297.6140244
292.6901586
286.9356159
290.4688683
300.7493041
303.4936509
293.2495971
293.57526
296.6946656
298.9027013
316.020619
318.0374975
312.8447014
312.6788213
313.5965419
302.7593037
304.2938318
316.3050321
320.018854
320.5086221
320.2636002
315.6915726
303.1200425
302.8880315
315.2561404
311.8213957
297.0467399
302.394126
304.4684375
302.5371861
290.326993
300.3656531
302.3555975
306.8888744
298.323475
311.7757178
300.4140814
312.2204206
287.9060687
295.8548414
298.3919608
307.8064083
299.5452638
291.7130087
295.534041
286.0161209
281.7290491
281.2885869
289.6741814
291.2821268
286.7461092
282.8033105
296.2166358
294.7674369
290.5352214
306.7702506
310.298164
298.0039147
310.0775766
304.3460484
302.9970374
303.9741781
312.4821552
300.661731
301.9799617
292.8204268
290.3164429
298.0482282
298.7720124
304.1431254
300.1899939
296.5361414
305.0177592
303.8739372
302.0870445
287.5822912
292.7644244
303.8013681
316.9492098
311.4065388
305.1388249
300.6311266
298.0324125
301.209801
307.4576351
312.3342544
311.4022843
306.615817
299.4947676
300.635962
306.2358752
301.8317269
286.222717
291.3842875
305.1240913
319.8138008
323.1720884
334.1063283
308.7812478
323.1353582
326.0489245
324.4236761
328.2953225
336.1502881
313.407273
313.1474229
308.0652768
307.5429264
313.225255
305.7552132
306.8151002
307.9114311
304.4504052
302.337568
293.8754662
292.374002
306.2758756
317.3468356
298.8042558
302.2285597
301.7005685
299.9721858
302.2206828
312.8582763
307.1616075
312.8360067
310.4774331
310.9591703
328.0138953
309.5039943
285.6205873
301.3485629
301.5364124
309.1604677
310.7898696
316.1605065
319.5662358
300.908517
314.8056511
309.5739626
319.5759172
308.9186418
309.9217912
325.2370861
335.6736438
323.8627182
329.7344348
323.3288484
314.5597495
316.3274379
343.2983031
331.5122884
324.8679476
324.1702007
334.6647062
323.0186671
309.9619293
314.65802
305.3812163
297.3343944
300.6688323
301.1141715
306.1880476
306.2503505
307.7637809
308.0886036
317.7628336
334.6710137
324.2529486
328.9800263
315.5357277
313.2206125
322.2230234
321.2924831
305.7197375
305.0522482
313.21852
297.5930104
307.8088273
314.1635667
316.0942115
304.4850024
284.6461603
282.3342158
289.4419284
298.8032912
303.9680241
313.8973796
312.4895803
330.8681521
338.3033793
329.1398253
337.2353107
308.7636618
300.9387734
303.766989
311.8568793
314.6052267
297.0923483
295.9479098
305.1888205
307.2475354
306.017589
301.0692619
295.3067993
287.4893583
293.8043262
300.5406966
311.9974111
301.601066
303.1902916
304.6129168
289.7321513
299.7361334
295.937751
284.2240287
288.9101143
298.1417578
291.416417
287.4003844
274.6738001
290.9257683
286.9414647
300.9029191
300.0251994
316.1049812
306.9559629
294.1061161
303.0367127
295.3637375
300.2085262
304.2361404
296.4427086
311.5580486
287.7273042
295.8379717
298.527362
284.4239789
295.3707805
293.3838198
287.725851
289.6714199
271.6196794
272.1649146
278.1404259
287.4045125
309.4273765
317.3782012
310.8284149
312.3703047
304.7880769
303.2849254
317.8578647
324.4213815
307.1629101
293.3535
297.0355337
298.4169473
304.8504563
296.3643043
290.3761181
292.6374338
306.5539193
296.2421305
298.480116
309.9137794
297.1934687
285.3384618
304.430627
298.2336167
295.3523513
297.6773443
294.7526048
307.6043264
318.5293764
318.6115836
304.3295302
294.8040788
308.5123613
312.3828297
309.1222604
295.4577941
291.5508001
292.9963899
303.0406787
311.8213242
306.7148524
301.7742044
290.0056336
291.6213446
296.5325056
293.1210578
300.7454952
295.008041
298.6695559
294.8739701
296.6582013
293.5298091
292.6909035
295.3751087
297.2872974
287.616178
295.7062138
300.4081206
301.5587797
285.6810265
283.8931138
284.7566266