/*--------------------------------*- C++ -*----------------------------------*\
| =========                 |                                                 |
| \\      /  F ield         | OpenFOAM: The Open Source CFD Toolbox           |
|  \\    /   O peration     | Version:  2.4.0-MNF                             |
|   \\  /    A nd           | Web:      www.OpenFOAM.org                      |
|    \\/     M anipulation  |                                                 |
\*---------------------------------------------------------------------------*/
FoamFile
{
    version     2.0;
    format      ascii;
    class       volScalarField;
    location    "0.0007";
    object      translationalT_O2;
}
// * * * * * * * * * * * * * * * * * * * * * * * * * * * * * * * * * * * * * //

dimensions      [0 0 0 1 0 0 0];

internalField   nonuniform List<scalar> 
5120
(
287.0134771
287.5271748
280.901354
273.2697608
296.5304066
299.5085292
291.7852931
289.2883282
300.2788085
296.7211236
288.7463087
299.9982418
306.9596928
306.7100514
328.0490515
314.824198
318.9049752
294.3874306
289.3470602
304.0596795
313.0569247
311.9032764
318.4583449
297.3841149
298.1993595
293.9859836
299.1841852
312.7997124
290.3033728
336.4925886
325.9490769
300.6215327
277.5732812
275.0609138
275.1471116
268.8690931
307.571473
326.7602829
304.5329167
286.6116269
318.8158101
306.9904065
318.122748
303.3962219
340.314752
317.6017021
298.3629471
283.2391547
291.9541961
318.2506333
305.2841095
304.4686553
304.6266991
285.6873203
329.8384419
328.6604613
337.8522883
338.511082
330.9461899
333.5681239
346.3196506
345.8739331
346.1630679
309.7955349
287.4440252
305.7448972
282.9574553
285.3291299
318.1898761
325.2918844
328.3260662
335.2394008
328.8324396
349.0448299
355.9364165
341.3386307
348.3029945
345.3242235
324.6962093
336.8280811
291.3234744
270.6918643
306.8141503
322.2465769
328.3099196
312.0730269
313.5821226
326.2707481
313.9135969
323.9413613
315.550835
307.2631599
316.1357753
297.0464947
317.6544913
307.253374
308.9124413
322.3927462
351.015633
328.8942978
316.8750713
311.6752564
285.513393
282.4688511
303.1791698
316.5608549
321.1411965
323.6433754
317.3412245
301.7736171
288.8388822
316.9529439
299.7881487
325.9975607
341.5963488
313.7173416
299.1083722
290.6674532
312.1378533
325.6155251
302.8527734
298.196237
305.7597084
328.7390465
308.5490687
288.8477276
287.6717743
292.300253
316.7238062
346.820727
304.9316525
307.916474
327.3869175
314.431042
299.2041479
343.3779193
339.2752497
328.5647322
309.6525022
301.1942378
330.1467095
328.2938537
310.2209056
293.7314737
299.8659389
300.567628
307.1844159
322.5783608
352.5572966
340.3865446
346.9436568
342.0846969
322.2372846
328.0247533
343.8019216
327.0918625
316.3902528
331.1909388
338.8998643
333.0510354
322.8669135
333.8633934
320.8829679
294.7859517
281.911691
301.5155224
327.1337292
383.0803301
356.0372984
346.424129
325.0941093
309.1617327
286.2212699
270.8387083
289.7017125
320.6739014
351.5098555
297.5568285
289.0868601
306.7791484
290.5979332
277.3767611
287.4739108
308.9096771
303.7192038
304.8594614
323.6055912
310.1138372
295.0447415
313.1518375
306.9173921
303.0221686
306.8252638
335.5448198
345.1775637
341.6359604
344.8790254
332.7065044
330.8502558
307.6620883
348.8416803
326.4108197
298.5203363
312.5428297
326.3539855
363.2378675
359.2156201
345.9321751
314.3105768
283.8382015
272.2256312
316.6242115
334.510504
343.7574005
330.0854246
351.358257
350.2350187
324.4813524
279.6493748
326.4477338
322.7393102
316.154374
355.0630064
359.3704219
359.171897
319.4694236
291.7298269
302.4661831
284.181137
310.7163294
318.2275498
307.6194951
284.2661283
301.0960069
326.8820586
328.9969972
301.2256019
291.9022284
293.6692204
307.3086474
352.7408925
363.4120909
329.6111989
307.5222136
317.0553553
334.0196662
329.0926556
340.6115406
348.6928474
317.5769497
318.788826
359.50781
360.6913531
365.6672917
357.1583093
356.0821622
326.6372981
332.5471779
337.6164988
341.8599319
295.9696111
309.8794304
336.3924202
302.1970392
316.5256611
316.7401909
313.4043403
325.3903292
330.0828887
319.1430636
301.5121991
312.8606049
325.7466227
314.1084133
326.3705136
312.0757962
336.5861131
297.0280587
319.1023701
306.8776198
274.3728961
260.9776759
274.0673728
285.2791524
284.7452671
287.5757225
266.8037792
277.7193388
277.8662775
267.2372485
286.100651
312.2543132
305.9844288
291.7792205
276.5195439
322.0949745
287.7060741
260.0589436
282.0212249
289.9904724
286.057628
310.9936378
317.282033
314.2001366
289.3034474
301.7717449
351.9432834
361.7132917
349.2773108
322.5857817
296.289626
294.5566343
288.817489
281.4235804
287.6600096
285.7821897
299.8925779
288.2374828
279.1416622
274.8397043
334.9629287
345.5669645
330.331456
315.8044945
308.5618454
305.6637887
313.0518538
312.8059437
273.5406728
288.4014254
306.0542729
316.9590312
301.0167249
298.572098
287.4844623
294.7368281
294.2428036
300.2980865
303.7245366
300.6089914
300.4083605
286.2024957
282.2455851
281.5122963
259.1551389
270.9034521
283.055498
289.0377776
305.6142819
277.8798498
273.5901337
282.913351
299.9976925
324.9347507
288.9353946
256.4756499
289.7492259
287.2889164
283.2874618
279.9039814
280.5265848
289.6767178
292.9978028
295.0534755
311.9569638
306.2930219
316.4104766
330.9775256
372.6137724
358.5432554
328.8910412
326.4703158
330.5595211
310.9157801
298.9608659
331.8478765
309.9504848
280.2128927
253.8689143
244.3294458
320.7988398
307.074973
294.1609845
350.6329663
287.2037554
333.6604953
331.9440163
316.0927946
347.3258593
313.0025769
291.6935796
299.3255458
277.4581968
262.7026162
272.7078979
283.5990368
297.7149728
287.6735921
309.0203986
311.4087516
320.8817825
326.9717472
321.2012593
294.2964182
307.6546923
284.3475661
282.3232799
305.4107346
318.6777334
317.8964892
309.6735703
275.1296064
289.2391223
271.369006
274.7691383
284.9449788
273.8454179
286.1617428
282.7458895
300.3517291
297.8248385
308.9811581
291.806451
288.3439083
281.7728385
287.5877656
309.9881987
299.1781211
305.1626616
304.7446822
320.7323146
331.2093445
306.7657535
330.936261
329.2236688
344.1697507
324.1522004
295.4746709
278.3741522
270.4926797
304.0938943
312.7142504
332.7129341
320.0640634
293.4633203
301.810568
311.4999299
309.2207406
284.4012643
288.5640962
297.3740138
287.8537437
306.9536443
334.7093471
333.171728
317.2388523
317.3456619
313.9709524
322.164765
327.4633284
298.1491315
296.5307636
292.7881309
301.2110901
321.9908146
293.9122079
333.9013807
298.5814675
295.1363631
324.2055842
332.6436217
338.156681
348.3869951
322.4329064
292.2003415
296.0714778
288.6582626
277.28075
278.9300227
286.0722927
297.5431483
306.6200035
315.4470999
314.6710365
331.1833595
330.8638579
317.905751
313.1831557
319.8134004
278.0915894
268.9448604
276.5533629
286.7399808
333.0513
384.7125771
361.2576327
333.6751217
331.4912951
320.0580248
307.6881273
323.9108536
310.8296452
310.8484489
319.0074409
311.2345352
322.3018602
309.8152697
291.9208151
292.9304028
315.203304
337.8750005
349.1810824
320.1504083
323.6382116
359.265649
279.8489339
304.585334
327.1735863
327.7576407
332.240071
309.3405751
281.4199451
289.9811433
322.7750642
345.9065819
316.3894025
277.7314264
285.8897384
305.0316601
305.814478
297.4044389
270.3338533
289.8854833
305.1353003
305.3475758
319.7182076
304.5756732
283.8809715
295.9325164
316.2087669
319.7822389
352.0747146
334.2531413
330.8254764
283.9879342
312.4160795
318.3341451
301.4863149
255.0269392
284.2037135
302.9686268
297.6197905
300.2917448
312.5149558
287.3514529
280.2541106
274.0599988
273.6929401
312.2041878
326.8693684
309.2686565
294.2573075
318.6928182
340.7468771
341.9393521
341.7949068
341.3761829
291.08574
293.7787716
308.7512661
303.6087718
302.1566743
290.3967179
289.8274306
292.2097791
281.1562355
313.9433108
299.5950523
309.0827571
323.0603743
317.2449726
316.6818257
322.8772806
346.5748938
329.9371479
318.0683617
335.3253862
314.8999558
335.5745567
321.709467
319.6586726
316.2097227
328.3133744
350.2755574
329.0667788
320.3975129
326.5564789
312.5309489
311.0043083
297.5536772
295.7217695
326.0082518
314.9434791
324.0361753
283.0654856
293.9308091
304.7213893
313.9010577
326.7262139
320.8990502
301.7794779
304.1113567
352.2907692
325.6359996
292.9047933
251.6375794
247.8868832
289.4351366
286.8368072
307.4287136
284.9694224
280.6733143
302.5082496
285.0023449
276.0484395
272.0184811
292.6558736
283.1996776
268.41115
281.0408306
281.2526284
274.0459713
264.5334347
279.4348572
284.9871536
299.3076054
282.2035833
267.0213978
282.7512119
270.8053414
318.8233281
311.5012541
302.1367434
287.9861099
311.1699467
302.931224
296.9808307
298.5253036
326.6140966
339.640063
329.1188688
296.7001671
300.9443776
321.0588342
295.231739
280.7127397
281.0780739
290.1917512
313.6140279
304.2099607
267.5013421
266.6837828
260.6692074
310.4675041
333.6682128
324.4206684
319.9640691
300.9355999
294.6531525
260.4786983
267.8418091
286.5910161
292.6068738
297.9065639
344.7859508
346.0493658
329.6810455
310.5307717
315.4899604
312.7912488
311.4786527
315.528557
320.9901405
300.7464363
323.3517323
297.5389151
301.0806071
297.690702
282.8122113
265.4627143
272.5063604
258.6762616
254.4797187
290.7959079
298.1106371
283.907566
287.1964485
300.6182436
317.8763982
325.4265453
343.1861079
337.8244881
305.433728
312.2596562
334.1236927
321.9803175
294.4035045
276.8989165
277.1078215
319.899958
291.284972
280.1955777
308.8107941
313.7523655
334.7229516
323.5879912
308.1177903
339.9258057
351.8578734
358.5697619
311.6009294
292.2775285
288.5311759
277.6767606
270.2099672
307.1178767
317.7603534
284.9917805
255.4545205
252.7676967
258.4419466
279.0210427
261.3706858
275.2822538
262.3908014
246.0744551
268.5782332
294.3678328
286.3491042
294.574473
290.0770791
301.762833
293.9762938
292.1955902
293.7775203
303.8068488
301.0100223
316.5153915
350.7190446
330.3374745
306.9763514
330.9675296
328.2835618
292.1555693
279.6441651
278.4242832
268.7263433
313.230549
304.110701
295.3192749
288.4714143
277.8654326
300.5808112
314.1918847
319.3247101
304.2853011
248.9638529
305.179549
301.6964933
267.1423009
298.0907426
318.112095
325.6762763
328.612295
315.41442
322.7710166
326.0863477
331.3008439
333.1978276
312.1680867
279.1008042
281.7816574
288.6603627
317.3592432
316.5411985
311.7468852
286.8222028
298.2878441
284.2251643
324.0568924
323.3359593
307.3695779
314.238265
325.8733334
297.8344249
292.5375693
280.5488901
281.9454726
285.0343285
266.3725419
324.4796827
302.4714202
298.307789
293.0732406
276.9684167
307.6363994
303.1673088
329.7091382
293.5662212
297.3026071
312.7495749
312.440759
254.5290792
290.2212179
307.6346045
306.3826891
301.4689663
293.2605736
314.2832615
306.3971077
294.9264244
309.0877124
315.9555646
323.6214886
332.939275
290.5557611
280.646191
291.2222205
302.9207575
300.7353664
314.9503468
345.0988186
336.4309879
316.8780559
320.6302868
327.508335
324.9568206
329.2663264
330.0213789
319.486617
311.0238303
334.0723824
374.258799
330.3092009
316.9861447
308.772309
297.8596213
300.2956168
297.4593278
303.0813761
285.795137
298.5308752
302.8397627
302.7235327
298.5391523
310.4086583
292.8791213
292.7461509
291.8569929
314.5197995
367.2168808
338.6300518
325.3740775
329.7617563
328.6182686
323.6691686
341.6332825
336.8740809
300.9917805
291.6704338
346.0557857
359.2587384
298.8564062
309.078022
303.4618104
347.7362242
353.0888631
366.2376429
333.97893
321.5098151
332.1726849
353.7940623
310.8271106
298.4409355
315.0194357
317.6088744
295.1586681
324.4350094
309.3135713
323.4288766
329.3393677
293.8704877
305.8235109
285.0862739
277.1164405
261.6615622
296.512677
344.447576
350.0899512
324.6160123
322.4667193
304.0227548
325.4056374
317.896215
302.1818946
313.0251637
286.6523865
321.9955148
324.3182587
340.5192324
353.0757934
379.9390234
333.7130323
322.7212887
308.3433529
326.2190966
310.8564734
303.3976343
311.864853
296.3007053
270.356748
269.6069969
295.4430615
309.2508434
300.2976956
298.630998
307.7497692
328.8543497
293.1804016
316.5223043
306.930156
298.7383175
295.7958772
289.5881275
273.8427965
282.008716
305.7503126
301.1460359
291.0569096
286.2342881
264.9934715
293.0023536
316.4387338
290.6489861
280.4331272
281.0087571
290.9092744
264.6987312
273.9829269
269.7892985
297.5161328
308.8745288
297.0046985
270.1163962
275.6629117
313.9737456
307.4555048
302.8961497
295.1920273
290.570239
291.0153605
261.3587388
274.3126106
295.3320696
279.8222633
283.8791642
304.1837703
314.3530025
282.4135294
280.3503913
302.328145
325.480267
311.5655372
304.6727721
287.3638264
281.4251176
276.9073296
276.7136626
276.2152284
281.840199
285.4455209
302.8791639
316.2699202
303.1063926
283.6778569
296.3334384
321.0418995
342.748491
338.7176542
357.3077278
326.5231448
295.0860663
309.7739009
313.6684437
304.9692245
280.1729771
283.1000376
292.738013
286.4272692
294.8528716
302.6254131
284.6899869
302.0424743
303.4554973
310.5731012
312.7049122
310.6920251
310.5700672
317.546741
314.6153153
330.4189677
320.6657702
306.7847082
299.2670052
302.9533035
299.5931676
306.0478308
274.4582978
297.8216012
268.653101
270.0082208
278.2669453
284.2571755
336.5821128
298.8868528
321.4261687
300.6898578
322.3412729
316.9193396
304.8483932
318.9641509
332.0821213
310.5982768
295.462268
290.6966084
306.6417409
322.9568155
312.5148596
294.1456914
276.0044611
269.4370334
259.5879167
278.0452862
311.4866412
320.616481
308.6555075
309.7253473
326.1772281
335.7801913
360.4265173
345.4634227
302.894276
312.9697526
336.8715383
304.4078398
293.0135096
286.4767118
272.555523
283.973346
262.5642528
303.5810172
344.1510486
313.0962546
288.7312602
297.7637274
274.9559887
286.666811
276.5598214
287.4427158
304.8248165
299.9871044
314.4547501
314.3121864
302.2442476
266.2945275
295.5011492
299.9521774
319.975906
313.659804
292.1478265
308.0800821
301.4545756
309.0929235
289.6213664
278.9082106
299.2737307
321.2134534
290.0585914
276.793936
285.601775
287.7330678
292.7827887
272.2416869
258.211109
301.499435
304.8362111
306.1303697
283.1995061
271.098522
305.0284538
281.3255496
271.7127518
262.2751744
260.4142056
278.5617205
277.8255662
294.7113305
321.5905526
333.6642881
318.8146383
324.143894
297.2157897
291.0566383
280.6883572
296.5133711
282.3415574
279.838049
303.318328
293.960967
292.0144629
289.4824429
275.8059787
248.7388904
238.38572
248.8775367
256.7335545
284.9179339
324.8822948
304.8133006
307.5137687
317.0402022
320.6652398
300.2919483
249.3763902
258.2340086
283.4626937
297.0805666
292.1137461
295.2832753
308.5430571
323.2612683
316.3514548
281.7523537
284.9557153
261.8552651
260.0271021
243.0270114
265.2009867
288.0899919
286.6758051
281.0150012
292.2777827
318.847651
328.5955142
305.5814084
306.7368796
331.5291961
347.2211428
319.3981612
311.0429503
276.15465
297.9248697
297.224362
283.6939109
266.6384128
257.7609157
268.8915253
256.4642928
245.3572632
283.5660826
290.6657174
292.5242165
295.2360749
280.0483084
287.721903
302.8382723
320.2239065
309.3289741
294.9075745
298.6304047
277.9412084
280.9018472
284.3301105
298.7555575
306.8810518
310.8951386
330.1140997
331.3898324
348.312782
336.2392151
296.7995816
268.7575011
270.6209259
291.0144234
293.7522221
271.6434836
298.5520554
301.3880616
305.0220309
309.8703644
292.1162001
285.9760317
296.2534289
311.0578707
293.8012745
319.7908006
343.2558704
319.2708012
305.8097486
292.6153567
271.0669849
271.8839716
261.827157
255.1287995
283.3303041
299.5101424
295.0392839
306.1664606
320.7590458
307.6647649
338.8592654
317.2164584
301.7157864
287.1889376
316.5430207
310.503721
290.9873197
288.8961828
272.2952134
303.0793313
275.423392
279.9052142
288.2373032
301.6183348
303.428735
277.4419261
294.7476907
282.4721629
291.0525833
336.5838558
265.6254317
254.4740441
270.7858155
270.0624202
255.8375651
270.630314
280.347021
307.5908473
296.5036929
281.5692972
283.1631074
298.2200925
288.0918768
288.9829432
289.1595544
284.2479299
298.9291577
306.3369432
278.4646748
273.9087486
289.2920989
307.0728006
313.9963125
290.6730511
322.8804669
332.6880025
301.4285529
310.4945305
318.9514697
298.8269891
278.2513114
260.2919375
260.6659434
254.9141926
256.645636
261.9945634
295.1812071
313.6853226
331.5705251
293.7772987
294.9870526
319.8934505
316.6337473
329.6853554
337.0267929
346.4334629
313.1923455
289.9276791
296.29145
310.394975
323.8681481
308.5345121
294.050152
333.9477699
291.9701998
305.2364808
296.9697208
307.4658243
312.4497096
310.7424376
330.7951223
286.5628866
285.3184371
295.0428891
324.4987299
320.6919655
311.2153135
318.0919739
259.1437322
259.1460572
304.1870398
327.9122642
290.9979401
268.989813
273.3233697
271.1195744
283.3674451
291.8526341
309.4808619
324.6440151
309.7008663
347.8941537
350.9438178
333.5324897
275.9540693
280.7606048
293.8673605
291.1822634
324.5044297
315.9463759
306.0962468
278.8558303
275.5371816
291.0893855
302.9671881
306.4156527
303.9772866
283.7171896
297.8039789
307.0079323
280.8206293
296.8746387
313.922528
309.6736943
298.2671386
312.7897789
299.44798
294.5016096
284.1318144
268.2202931
267.9438783
293.0499626
304.4233071
304.3732284
324.6701008
325.7325547
302.4057038
290.8916518
284.8398794
282.2820864
316.33864
307.6485743
265.4466593
277.3806213
294.5090609
306.69409
292.918281
305.5915928
289.4196432
287.8396409
286.8698917
275.2575255
283.7071636
257.5353998
240.341767
234.5249605
233.6825279
250.7580713
263.560512
285.6938756
295.5437366
276.594217
286.0286068
292.3401137
306.4384956
293.8289455
305.9850193
310.0380139
307.2162078
299.757854
300.5781991
306.4015333
284.6214844
318.3614756
323.1599027
310.0256588
323.5493317
327.98883
327.8986421
316.6595192
243.4877832
273.7893061
304.5243533
319.5412156
335.5654618
334.7931662
323.2764444
304.6412117
311.1121927
293.7681498
295.2949546
259.1603156
280.1721509
296.1455277
298.1410406
296.5897342
298.6495503
277.4481213
276.4768728
258.1987995
304.4042012
289.5733562
310.737547
306.7622133
296.9907314
282.6013158
270.2584445
278.0712739
285.6649365
288.7973783
255.3468178
267.6390892
277.3506709
303.2826994
315.2062651
287.229256
288.5189553
287.0869982
297.3816711
304.2882664
280.6972143
309.7011258
314.7256266
307.1696155
292.3823232
293.0299981
286.2327941
255.0694192
250.6260965
261.4982847
271.3840495
255.5298916
263.146885
280.7490821
273.9281951
283.3171864
284.823256
280.9569438
286.8203026
295.299195
296.5620357
288.1354978
299.2528693
297.9791721
297.8450907
286.6361953
288.1457709
299.3925454
267.7983296
277.7570233
288.8184585
290.6488803
289.2330748
288.7045682
301.3996032
290.9995547
309.886497
299.8687178
292.5736423
299.003568
310.9779448
271.0754401
272.8439771
298.4285314
285.0143985
297.2756905
281.9597207
260.1668669
286.2909465
282.404606
253.6921238
267.8132482
278.4262873
301.9037891
293.8276549
311.2650818
278.282028
296.2804723
299.6547556
295.5288835
267.8993027
298.6501235
307.8972529
291.574956
295.5549616
271.8331082
317.7957623
297.614077
283.6296735
300.0298561
297.5727027
283.252542
282.3328556
300.9304354
285.0710214
281.6646944
291.4639092
293.2657368
281.2302455
276.5562102
302.0639183
311.381656
310.8550015
324.7704015
307.5007567
321.0275608
299.0806696
318.4357287
280.8170743
286.7152141
318.9572136
334.2709231
321.9826032
303.6123625
308.5954518
298.7667646
283.7730091
299.0398998
293.4076365
282.2181879
343.0043097
309.3244012
291.0658051
291.6193523
320.8881779
301.6378809
270.4693501
267.3216068
292.7735494
275.4479727
289.9294643
278.0668775
306.0325742
283.5363514
272.2296214
304.9519054
299.6384848
320.3173335
314.3795291
318.4348787
347.0218449
370.0752333
350.9958129
334.9016534
306.5674221
279.9910235
305.7469315
321.4434618
274.7406752
276.8157691
287.8236229
292.2955747
313.2168074
328.3398244
304.8100113
292.447607
281.3697315
314.0312163
313.6480682
321.5403238
327.0267973
313.1683726
307.013618
315.9520054
291.3677568
314.4746775
353.4154867
335.3537598
383.4000597
365.41902
339.245085
297.6567347
271.8658839
286.9207738
322.8838542
348.3885456
335.6007583
308.4172677
281.0700145
315.5010772
305.149564
319.2627598
330.9902289
321.4097026
314.3854284
307.1485517
283.8838896
293.5199807
272.5343119
282.6076318
312.274962
297.5554736
269.6911077
294.3069246
305.5213812
289.1369987
294.2326468
277.8911303
276.2061491
318.5324325
284.3045183
274.965986
247.8159388
252.941964
275.880546
276.3232023
298.3500842
266.8089887
278.1299547
264.2357104
284.4513359
270.1213036
273.7098245
265.3143952
286.8448837
275.2936257
298.0611268
319.9996349
316.7908066
303.2743595
286.58376
274.647135
290.0812545
295.6421456
304.8129938
276.6146008
277.3424803
267.0252805
274.8388425
253.1883693
246.9655276
260.4867969
302.6064633
297.9964371
288.2263064
284.2255259
287.8376094
292.3706643
272.8247718
277.7470634
290.2478059
271.0527478
272.9257752
281.010289
327.6773454
320.9399435
296.744278
313.9170761
289.7985597
287.3898148
300.1043966
318.9915008
294.5500289
319.4111371
303.7894167
276.7797469
269.7844193
272.7245989
318.6975574
314.3759526
248.5719973
270.82713
291.6327213
277.7464626
256.4584762
252.6450378
274.0193794
287.3024303
277.1831269
280.2112132
279.7513455
290.7525174
322.6446671
308.1724745
305.8931691
277.6411865
305.8685325
274.379588
256.2497649
258.4809757
269.1248968
267.772559
280.6989013
258.6479774
295.4183219
278.3241685
273.5194993
285.2290862
304.5015146
311.8023877
307.4156226
284.3618004
272.2564485
273.2685784
289.3514786
302.4694919
284.5766536
275.9513736
258.3241544
278.9672287
326.4403866
331.4463754
327.9570306
333.2912178
306.4846924
327.851082
315.5399794
302.6650098
290.7386721
284.8031234
279.139709
294.7856136
297.6873964
294.992869
289.7679633
284.4552759
266.3987562
282.3427506
288.4998665
313.8468203
303.4212089
317.5897844
298.013774
300.208875
285.3691001
276.1349082
306.6617837
295.6981087
283.5064145
321.5067747
316.3429267
311.2620531
338.1636781
331.492169
306.1986825
307.7067118
298.6649389
292.3690334
273.0244224
280.353263
268.7406438
292.9780967
329.9327039
301.3361086
299.3432455
310.5932133
311.1113055
283.9888204
276.6915379
301.51466
308.4141163
290.2531778
299.1153792
285.9847596
287.3666697
278.7281612
276.0453941
281.7393645
303.3213911
281.8364236
328.1682931
287.3895704
268.3049922
289.7143761
259.1525748
279.2590914
287.34269
298.1366539
295.9806141
291.5069745
266.9567092
256.8625873
263.1455045
273.374438
278.7214699
270.8039201
263.3157424
263.2287017
267.4852471
302.6286857
271.9630686
300.4736079
310.1202956
303.8000756
298.3403126
304.4769479
308.0270697
305.9863125
275.5087966
266.6133976
305.5509595
327.8956659
296.2229984
276.0663718
263.8229868
265.6771889
295.9236837
308.495252
277.4709053
279.7730043
321.2886526
317.3076055
322.1476339
330.8286165
327.2771452
330.9739115
311.408714
332.3767845
302.7518553
258.7323403
255.6149118
260.2750598
257.3402281
247.2616552
276.4735107
266.9397513
244.0545743
279.0881994
299.7724743
296.0587608
344.1756626
320.2077021
317.2033511
303.8999612
333.5634047
339.6362645
325.3896828
311.0913152
328.9494248
322.6767239
328.0866679
310.2829687
305.3349736
286.4015762
288.5666406
338.7996398
329.2853092
293.4093515
300.5845642
334.4126293
299.6460555
301.4883322
313.4150167
300.0057342
298.7696027
303.8408054
303.6323239
331.0471844
329.6531612
326.8038822
318.3008414
305.0310912
290.4040332
294.5343858
286.4396366
286.4273474
288.0427215
294.9181013
312.6068629
298.8325632
294.2732769
316.3537247
303.7343754
317.2698414
317.089517
333.3292082
339.5799552
305.1900116
283.4083523
303.9846803
307.0682432
308.5021986
300.4783097
314.0452375
319.3832335
306.1316478
301.9837753
295.2779929
307.6390312
327.8640266
308.3164374
312.9670429
342.0207382
339.9178514
327.0398141
316.2507398
324.1607615
342.0521567
319.2601191
279.9192271
289.7944866
315.3804197
304.2274942
302.7366632
314.5687585
338.5334569
323.1769999
320.0546101
292.1356018
301.7718561
311.7276787
316.3355242
310.1417661
316.4624124
357.0061473
315.104574
312.6468389
340.5259629
353.678337
332.5363885
295.2319454
304.8633872
314.4263351
320.917225
303.1727317
315.4776308
324.6817757
319.9605933
306.6762978
310.3817736
291.3419972
313.0514895
340.9047225
331.4538663
299.049311
312.4142158
309.6330419
339.8841737
345.4921907
355.9949041
308.8424516
301.8063643
300.5949488
273.0604785
299.5117436
305.1905904
297.9234226
289.282137
304.006646
271.041614
332.3893955
359.0215378
360.4887372
358.3978285
346.1744314
350.4888104
315.1650078
302.3896443
281.5955946
292.730953
276.5395364
304.5705274
268.3101802
273.585833
283.2916852
279.2828321
285.8019083
305.0725064
297.0528051
309.4659016
336.7079764
331.6868576
325.3511094
305.1251679
292.7027163
270.087742
253.4579061
240.9016655
258.2713781
281.7801507
284.5116174
301.4044182
332.3773622
336.1538788
316.0385079
317.8824334
315.8161917
324.6978904
331.6616396
355.6221069
299.1820482
300.2322778
273.7979818
251.3553456
275.3124424
284.5907685
274.7004629
273.2022608
300.5639567
285.2186273
287.2567532
287.4129611
268.4928235
267.4397401
287.9957003
320.6189919
329.7028086
309.0021317
313.3101728
306.7907964
269.1020999
262.588269
263.619458
303.6286917
307.2811366
315.085325
295.4830526
286.1781818
287.8557239
291.6744331
307.6898404
289.7488656
283.0283412
299.5205989
292.2793184
267.7993852
284.8080436
309.5241265
294.9501849
271.6780534
295.8311867
299.1722089
320.060768
301.6177718
291.1013758
250.971671
274.2546461
275.0835898
273.9631084
283.2874664
298.3358357
272.8248864
276.2504949
273.1867513
240.1830568
278.8916001
314.8725212
304.2562171
304.2148682
297.8759496
275.0432432
274.5582859
285.5604081
289.391123
294.930738
278.0057166
278.6060051
280.317075
301.3779001
288.6284046
280.0263131
289.2769848
274.5907102
286.2152753
284.6489539
288.4725914
287.2324648
268.5638392
288.0588887
279.7989017
306.9097598
318.3640811
286.8331525
297.6416557
299.6159843
298.4340052
311.6972649
317.6540432
333.9137879
337.9799722
310.2503232
308.5087432
322.8564837
309.443523
328.6139057
328.6269415
352.3455153
355.0460596
333.2127358
341.8163888
309.5261107
295.2266554
287.1907155
269.5077765
284.4728199
252.548446
248.9099266
283.1899204
279.2682198
275.8195852
297.0791389
275.4310945
299.1166023
303.5330709
310.2161527
303.8037166
305.1383722
292.6008065
313.3538822
320.6377602
311.9367038
308.2382977
312.728934
329.899931
363.4918569
342.52195
296.3390916
300.719363
320.8082405
341.4958613
325.9298922
318.4950327
297.3579292
273.4914311
272.4043281
281.8696676
291.0925224
296.6622067
304.5966739
292.4271204
283.8242402
306.7389941
313.1132207
310.5682439
286.1358944
257.8022281
285.1302533
289.0799574
288.4327263
273.2943173
296.1180038
287.2933415
330.1564281
318.1583975
329.2473341
324.0219323
302.6101737
290.7969465
282.685876
294.3026213
308.5156479
325.4813097
332.2219313
309.6086039
301.6854295
304.246857
303.5181711
287.4726431
275.0838573
288.6374095
292.4674406
300.6324824
271.0481701
328.8323233
349.1750002
326.5116257
314.4076654
304.2728948
286.5676935
313.2273171
260.6358085
266.5583576
295.1843842
300.8797302
279.1904985
268.0995387
314.7442635
313.2460266
291.3719895
281.1998503
288.8292581
276.769653
264.4497705
246.7626604
273.6303809
284.6048706
277.1285821
281.4125135
272.4439331
276.5146498
293.5383325
290.4998789
277.2132538
279.4020025
299.3780583
279.6336739
285.0883253
266.8283465
289.6653852
290.638819
285.9631332
315.2371141
307.5043911
294.1639577
283.438116
287.8490836
282.5665859
280.7248097
270.2067615
293.3604677
323.0042282
304.2126299
304.5780903
316.6192648
307.2727004
326.2721119
306.6017497
300.009128
308.442489
333.3889308
315.5643207
294.5224396
298.4806833
322.9350547
299.5885055
291.1910314
314.9429349
326.5342923
318.3003297
315.1706189
288.5599829
287.9864612
311.9928542
323.4996379
320.3402823
331.6229502
308.5651609
302.5133973
281.7511217
303.8999874
312.4692357
332.5578028
322.7520185
320.6721028
325.7108919
326.826661
317.816809
317.0526819
335.7459405
334.7623782
293.558546
310.1280475
305.8358723
298.1346801
287.7249491
285.2165327
282.1147008
268.1409939
302.468803
305.4514479
325.157698
275.1862578
267.6002302
294.1349531
303.7975923
296.3279368
312.4263372
342.771567
311.2131126
319.9621331
336.0119093
321.1636017
313.7594156
303.5175066
326.6273583
365.0253818
358.6001998
336.2261837
356.7427613
345.2345397
311.7750901
335.1551202
355.5723228
310.3035284
316.78974
348.8198457
369.7216018
336.610127
334.2586717
327.7447635
301.4029999
280.2045829
294.3103465
313.4181249
306.9688374
294.169419
295.4628501
295.2763113
296.7030389
322.01233
331.6199715
305.4969689
275.1987768
271.3011601
290.9935487
311.7358313
327.9911896
343.6254848
346.5227278
307.0945618
302.3146051
297.7162948
285.8694648
284.1232393
257.1504293
259.80257
297.6611632
290.5928802
293.2345505
287.5662247
283.832066
307.5531512
304.295234
311.2844444
307.2209139
289.5127369
270.7778954
279.0531771
308.049301
307.9097087
315.8995198
305.8589404
326.3441483
283.9556073
293.8680425
312.5438489
294.3516691
272.5120153
274.6032219
276.3860934
287.7530569
286.7946971
302.6263792
277.6119378
273.0292236
308.7725535
299.4053295
315.7621155
326.6703414
321.5337957
291.015111
282.4694215
250.4312422
299.7036243
309.3827188
318.9354768
307.6640838
338.2415796
319.9852824
259.3951552
264.5875945
253.0037642
243.6907575
253.249686
256.7382174
281.4792866
262.1493758
255.1598228
270.318202
288.6898253
292.4637513
277.6068866
263.7250971
275.3343286
256.4091752
287.0134622
301.946904
310.2470432
303.1480249
320.672581
305.1215088
316.0631512
319.1192777
290.6013371
305.8890163
301.2907386
287.9963967
264.5512648
308.9174868
289.4445519
314.8992687
287.1262674
292.0887072
290.6676183
318.7574197
304.6420443
305.9341395
322.6884124
289.5661878
265.1178022
263.5817528
307.3694832
320.4192676
343.147713
334.9481404
331.7399474
345.046647
320.7771467
324.1228675
314.0177182
322.4192041
326.2059556
339.69958
315.3989866
307.8421709
297.0693598
294.1440115
316.2621064
309.8868598
327.1315177
298.4119374
295.2579994
287.1917229
269.2975919
291.7483606
293.1784436
335.0036234
339.2719049
319.6383793
294.091599
301.8556013
285.5460039
295.6608219
285.3803791
258.2444106
290.2412662
303.1233455
254.78229
254.351396