/*--------------------------------*- C++ -*----------------------------------*\
| =========                 |                                                 |
| \\      /  F ield         | OpenFOAM: The Open Source CFD Toolbox           |
|  \\    /   O peration     | Version:  2.4.0-MNF                             |
|   \\  /    A nd           | Web:      www.OpenFOAM.org                      |
|    \\/     M anipulation  |                                                 |
\*---------------------------------------------------------------------------*/
FoamFile
{
    version     2.0;
    format      ascii;
    class       volVectorField;
    location    "0.0007";
    object      UMean_N2;
}
// * * * * * * * * * * * * * * * * * * * * * * * * * * * * * * * * * * * * * //

dimensions      [0 1 -1 0 0 0 0];

internalField   nonuniform List<vector> 
5120
(
(1936.282071 16.08493651 -11.48590351)
(1932.055679 -1.960987582 -14.04191946)
(1931.099536 10.3944411 4.12092888)
(1962.583727 14.64639165 20.54122068)
(1962.740573 28.28651434 11.80930843)
(1964.310941 20.98118628 34.29256105)
(1962.0546 18.2395055 36.90353097)
(1960.85822 30.82976627 20.22653048)
(1963.514035 3.792364859 1.992850811)
(1951.68318 -14.73389695 11.7406951)
(1944.380605 -28.44723757 16.3488787)
(1946.037493 -20.48549706 9.772315338)
(1971.252185 -13.3233566 -3.708066612)
(1948.128347 6.585000399 -9.02540279)
(1947.577337 7.849079458 -10.8399008)
(1958.942445 8.448219879 -24.9604519)
(1967.357178 3.905364912 -13.47221711)
(1950.445129 -0.2478826263 -8.075981834)
(1950.275871 14.25831804 -24.90103762)
(1937.139144 13.45865636 0.322714178)
(1942.631818 2.101573636 24.00322928)
(1952.166133 -7.895204709 23.53284254)
(1950.767422 -16.72938387 9.666592054)
(1954.437761 -17.70392058 6.953489359)
(1940.807881 -21.41178367 -1.486235108)
(1943.861483 -31.07794605 -7.534950207)
(1949.33952 -31.05335789 1.21578764)
(1949.456293 -22.67695223 -5.985821423)
(1942.88324 -15.66443907 1.583345701)
(1952.660887 9.000316722 -8.743253059)
(1969.832587 -4.068392822 3.009963264)
(1976.834822 10.146437 -5.709590652)
(1980.192739 4.754936171 8.307174012)
(1967.16534 -2.326802839 0.6435065649)
(1958.512735 15.09509333 -6.372540908)
(1945.867943 24.2112606 -24.45999212)
(1941.838654 15.45682815 -17.92395049)
(1928.585328 17.3544817 -5.85565438)
(1929.041061 26.06900084 9.288749349)
(1938.267132 12.40103545 5.602051091)
(1971.262852 7.994566751 -1.573876777)
(1960.901564 -6.036611624 -0.1266101233)
(1944.018442 -3.730072619 20.29222258)
(1938.214848 -14.72049993 21.22872838)
(1929.94101 0.538827068 -0.00432861561)
(1950.93759 -13.72125818 -13.10625301)
(1957.636291 -13.99062876 -21.35719621)
(1967.790424 -9.922274238 -29.75647066)
(1975.222459 -13.44649093 -36.1743977)
(1966.611138 -2.836773673 -29.74629776)
(1958.927884 9.81548927 -18.85033846)
(1962.816353 1.513523038 -12.82482193)
(1944.744316 5.036796046 -4.758939116)
(1947.317745 14.41823256 2.228960027)
(1958.331219 -3.856487429 -1.101587554)
(1943.802681 7.611014285 -1.117384558)
(1942.240191 4.276694658 8.299462003)
(1960.336253 8.787294257 9.406226176)
(1967.308856 11.50664974 3.752137755)
(1975.222226 9.430174612 -2.021104263)
(1959.274533 -10.14723907 -0.2703728563)
(1964.097623 -14.18701725 -5.818559655)
(1977.534326 -5.450555666 -7.745682301)
(1980.573629 -7.19240005 -2.820450117)
(1982.034589 -6.544252759 -14.21529964)
(1968.806541 -10.47710648 -11.47480804)
(1986.169104 5.654789176 -9.564039425)
(1986.120444 4.970943383 15.29538883)
(1968.115877 8.012588487 30.3124643)
(1962.279339 6.688160818 41.20105877)
(1958.457128 7.127655346 19.20648886)
(1948.920081 -2.119271427 17.36851796)
(1955.929687 2.120721249 21.35965143)
(1953.284892 3.017032529 28.62875622)
(1960.944139 14.01429571 21.86735345)
(1958.088679 27.97345812 25.69748816)
(1948.206656 25.59047988 5.674257665)
(1959.945571 1.930682616 10.14863604)
(1950.931641 -5.243318283 -8.31648387)
(1941.80681 -9.876077255 -10.52625853)
(1958.779844 10.19304556 -16.41104875)
(1944.266351 -9.306535922 -12.76084911)
(1927.253513 -5.02460219 -4.711292716)
(1927.229673 0.8229059747 12.44659311)
(1932.831235 -2.135800885 -0.4158440823)
(1931.283513 -7.753538096 23.49924584)
(1935.860161 -4.535002782 17.25687604)
(1956.802422 -14.78857277 -0.3906979324)
(1959.714875 -7.327457491 7.356785686)
(1961.782351 -27.50822971 11.7067714)
(1943.662989 -14.88036098 11.03660936)
(1946.160147 -7.599774282 -1.227024266)
(1946.356153 17.07417541 -10.9635845)
(1954.392936 15.54518559 -13.67999619)
(1942.389373 10.62380723 -18.22846985)
(1955.080898 2.846720524 -17.21068606)
(1966.787354 -10.61431714 -4.982247947)
(1959.463908 -18.90258759 15.0890952)
(1967.044905 -3.758353311 4.587617264)
(1970.569373 4.897713983 -12.47907102)
(1914.959172 -7.508899041 16.2665424)
(1914.043431 9.266742954 8.743087752)
(1916.424009 7.888995027 2.497964246)
(1932.441718 6.738172323 1.191556024)
(1934.176655 8.160329245 10.5038829)
(1936.471629 -6.216110004 10.3809697)
(1937.286408 -21.74519192 4.074924495)
(1920.700656 -24.57873592 21.38013609)
(1933.871753 -23.17501959 25.99492495)
(1927.648839 7.179480582 25.16504628)
(1934.470486 6.500024503 21.97370612)
(1950.268246 16.72340164 44.95630647)
(1946.308707 3.111121744 36.7578888)
(1950.619135 -9.110811117 19.40542944)
(1964.247813 -6.259041594 -7.775909767)
(1950.790508 0.2624874956 -19.04118442)
(1947.639319 2.805681973 -15.58782782)
(1954.75411 14.4608958 -4.713380803)
(1927.425908 2.832777321 2.244795872)
(1926.65214 0.2902556458 16.24764789)
(1953.89949 13.35673971 -8.866656602)
(1951.564337 19.87392684 -9.937439928)
(1949.766942 12.13638814 -2.464825014)
(1940.692005 14.06105339 1.053096665)
(1944.062326 11.00176294 10.69986677)
(1953.70502 -14.85073249 -11.34680124)
(1957.408756 6.388767997 -15.74831399)
(1965.673762 18.58230128 -21.97824403)
(1956.438536 5.185421215 -24.04651163)
(1951.668836 -5.153014821 -20.51803193)
(1939.995125 8.898390368 -8.056654436)
(1946.813123 5.304253571 -12.12049568)
(1960.722363 3.585736771 -5.665817225)
(1967.721599 23.05491402 3.748459719)
(1974.047902 32.3386507 16.73754668)
(1964.34188 26.72648611 14.95105183)
(1955.335269 -0.7176248284 6.643349326)
(1940.69164 -3.34632807 -3.834490747)
(1943.675016 -2.977376449 -1.250378846)
(1951.48812 -11.50682526 -4.631192558)
(1957.302247 6.571846347 8.444640072)
(1967.989521 18.27990921 18.56550548)
(1962.205313 11.48098384 9.296021963)
(1958.793276 17.01470305 5.108329191)
(1948.119986 5.181818359 6.172362218)
(1945.625188 4.369122307 26.88271699)
(1948.425425 19.25031237 10.03876361)
(1939.486029 17.94810176 -10.21576995)
(1948.503079 0.9630149504 -11.14163786)
(1944.111277 10.52961321 4.747822142)
(1930.044666 17.23301989 11.18706584)
(1924.431007 13.77805384 16.22090422)
(1914.784522 11.73274932 14.71860249)
(1924.293591 -8.958454172 19.89613907)
(1925.615003 -7.588026111 8.208017366)
(1934.804446 1.89866385 0.9047766002)
(1955.312701 10.13821382 -0.06529742275)
(1966.654937 11.49975736 5.046156283)
(1944.420678 18.57157429 8.079058639)
(1950.57499 14.64457161 23.41422499)
(1952.410271 9.69530626 -3.539350127)
(1931.416934 9.490649946 -16.87194201)
(1932.10376 -4.950577851 -30.1899686)
(1925.595402 -0.4707513824 -4.876557614)
(1931.105744 16.02893908 -9.622144606)
(1924.729816 14.54800559 7.28629012)
(1920.58672 7.736063477 18.30876746)
(1929.655317 8.086724951 14.31393685)
(1938.836453 23.5107452 12.17466496)
(1925.465918 22.69588428 15.71753802)
(1952.646916 -16.95505544 0.04886915378)
(1970.932436 -11.72425322 -18.03582447)
(1975.194503 -11.13423425 -21.81087782)
(1967.56727 -20.28646074 -15.79045953)
(1962.926081 -7.576073948 -0.9477975419)
(1963.4171 -20.58521986 26.399669)
(1973.824954 -12.90765768 22.33325829)
(1963.616795 -14.91620109 6.540171282)
(1971.705658 -16.14762675 -6.111185814)
(1961.386473 1.298611343 2.528843787)
(1943.884137 -0.5375490748 12.02536161)
(1925.193469 6.69592579 -0.9078773059)
(1944.75765 0.6614788745 -2.24652746)
(1943.923506 -8.074564375 -5.701289305)
(1950.958498 -24.30140296 19.94850979)
(1935.666952 -10.78475201 29.85378388)
(1944.614067 3.061216228 23.96568212)
(1934.810971 5.185223544 29.44529345)
(1925.326633 -6.612254536 15.93472393)
(1938.431769 -14.5938076 15.78667104)
(1956.317949 -22.42427271 11.88744226)
(1953.167151 -22.87462694 -6.19268253)
(1961.425796 -20.49850943 -5.529423088)
(1963.45902 -9.879436495 -13.84747305)
(1968.650015 -17.21631717 -7.501482686)
(1976.368135 -12.45529244 -8.347875116)
(1958.984928 0.8783119598 -2.198129713)
(1967.562402 0.9274523823 1.020149749)
(1963.8353 -2.298881643 16.53750717)
(1949.813393 -10.48481568 -0.675013189)
(1923.004923 -1.930619529 21.95150178)
(1919.148751 3.651092399 8.434686856)
(1925.272725 13.91211423 8.994030234)
(1935.727096 9.61204031 -10.70136234)
(1941.35792 1.063828761 -10.67176177)
(1933.870112 -8.897688059 -6.437937185)
(1931.498303 -9.277084569 -9.498557449)
(1936.318845 -8.301812706 8.979564463)
(1947.018813 4.095833118 15.70338091)
(1929.230596 3.226023644 -4.958662596)
(1923.537633 -10.26940921 -24.65673588)
(1955.343002 -13.82390102 -18.37704746)
(1958.463922 -16.60748886 -2.046665714)
(1950.497989 -19.47297672 1.555747436)
(1953.833845 -10.57600036 18.04706012)
(1946.458 -3.000763497 0.6092625676)
(1941.63809 -8.41815222 -8.463845603)
(1943.659581 5.173246196 -3.649969373)
(1947.515428 7.382784252 -2.060240691)
(1932.486301 -3.405140034 3.233373693)
(1944.616526 20.77012738 22.52439588)
(1949.195401 7.070428081 26.048207)
(1938.785678 -8.004939159 12.39299504)
(1931.165796 -19.43807612 -2.691576927)
(1936.755235 -23.12081227 -11.76114688)
(1941.030121 -9.770361154 -9.656603183)
(1951.843367 0.4666451417 -10.10930611)
(1951.838484 -16.20115135 -9.259531848)
(1948.091264 -25.83468098 -7.936806468)
(1941.340852 -16.51745793 5.162350546)
(1942.074087 -0.4166431676 -0.6184639413)
(1938.253183 6.392108084 -16.54084963)
(1934.476897 7.350943504 -7.149094608)
(1928.877013 1.125234386 -0.8456484124)
(1916.296088 22.53066366 -17.19859235)
(1906.357964 -1.633322306 -16.49078505)
(1934.916493 -8.517675231 -14.39521877)
(1934.16725 -16.25939041 -10.55107394)
(1938.093698 -7.166358741 -8.515100225)
(1945.889025 9.254516755 -6.476896202)
(1953.410475 -23.75411505 29.60480727)
(1954.467131 -11.30321175 31.68410874)
(1959.176847 4.445307015 11.49672187)
(1946.777678 17.5990619 7.964791608)
(1938.866186 2.324287364 3.335649311)
(1943.187793 -3.627432586 -28.3091333)
(1941.630597 8.35625871 -31.35762192)
(1963.203983 2.653250381 -41.80433301)
(1956.456126 3.662449026 -18.52112765)
(1958.621267 4.638481831 -13.40014545)
(1971.115755 -2.15417757 -23.59020622)
(1952.311238 -12.98639164 -12.67201291)
(1934.606849 -11.42285321 5.202836976)
(1941.928379 -17.93063251 4.500469029)
(1949.269449 1.471449697 12.57296289)
(1951.389712 2.144261441 6.485265811)
(1938.387833 22.62642769 0.7330038881)
(1950.59313 22.14947759 12.43024136)
(1956.363438 9.714047851 22.90722186)
(1952.937616 4.318333288 42.39635178)
(1956.787114 21.84101592 -17.18480556)
(1960.41582 22.57507272 -7.317575561)
(1959.626703 24.11353267 4.747422945)
(1945.361065 10.70255729 7.971230092)
(1943.942978 5.54360595 -13.67647701)
(1938.008142 1.429653796 -6.724646527)
(1928.879457 -7.292224804 -12.19347637)
(1914.769869 -6.351021149 -28.79649483)
(1914.220267 -13.25718057 -17.31474449)
(1931.700988 -20.80260678 8.33318831)
(1932.415703 -6.866935334 17.71649096)
(1949.857283 -7.306853974 7.547138089)
(1972.108735 -11.00257949 -4.621048675)
(1979.125423 -1.944338967 1.307295088)
(1971.104897 -2.179441849 22.57907107)
(1972.739963 -16.60651003 -4.929787603)
(1974.695903 -19.73130004 -3.738333811)
(1957.735574 -9.760143487 1.334215609)
(1945.212252 4.296054065 0.9073883582)
(1954.994349 4.053098933 -16.47454308)
(1919.362536 0.2422928767 -11.95371355)
(1914.608318 -2.666394117 -12.15183657)
(1922.673019 8.533407086 -15.15432636)
(1929.130728 6.203550291 7.14423224)
(1949.618455 11.2660445 26.26901237)
(1952.963097 2.171514949 23.50416474)
(1955.680664 4.80196634 9.091978171)
(1939.822315 9.399691968 13.46464334)
(1955.905088 -5.396720439 35.29486527)
(1951.885183 -13.86611114 7.027226076)
(1967.24999 6.67429931 4.303131194)
(1971.22738 4.287861188 12.64269024)
(1964.953142 7.844060362 7.780300153)
(1968.087553 21.21823064 29.99582948)
(1968.219934 1.632744869 31.00404504)
(1970.481271 14.12126423 15.45541762)
(1963.36156 15.64482887 -4.91634594)
(1943.69539 9.730418443 -7.307194456)
(1927.750915 4.721245212 -12.97345375)
(1922.753164 7.693239531 -12.78835105)
(1953.795423 15.3080052 -22.08176893)
(1967.208916 24.14168649 -2.606587657)
(1960.681661 15.07592319 -9.418952657)
(1944.835736 15.8240329 -16.0023834)
(1936.134979 11.07907264 -3.876428763)
(1933.490595 18.12770974 -0.587464545)
(1939.640951 16.92952763 -4.847567796)
(1947.064814 -16.29722371 1.366157824)
(1943.224064 -3.71631466 -16.75371807)
(1942.638472 4.753034708 7.364124146)
(1941.531937 13.5435974 8.365923484)
(1947.071853 24.8954178 -0.3782546287)
(1938.091411 1.992516759 -20.87794175)
(1952.74775 -17.15704676 -4.590168112)
(1957.556059 -8.668766441 0.3859120919)
(1961.913333 4.06197769 8.076680266)
(1955.998666 11.72363371 9.734882586)
(1950.034352 13.32173908 -8.631020902)
(1973.999599 0.9811796844 -6.958475409)
(1978.134025 18.79669864 -17.43247535)
(1952.286943 7.956119605 -10.71081831)
(1951.671768 42.58580273 7.064575261)
(1964.21536 42.14634531 1.686288184)
(1959.515688 15.44958815 -8.88265215)
(1967.327502 -2.565996745 -11.81214694)
(1951.82057 -4.036498806 -23.0090842)
(1949.164872 11.3627457 -25.91409758)
(1949.607044 25.94515287 -11.56690771)
(1946.058694 18.26102518 13.06770771)
(1951.978798 11.37599541 4.552676197)
(1937.344284 1.754481762 -7.202458007)
(1917.357774 2.602018343 -0.4979584648)
(1930.117945 12.17640276 -12.17447607)
(1930.015644 26.96103459 -1.642920466)
(1920.028145 12.54931022 -19.55326632)
(1928.392671 -7.325178737 -12.93035719)
(1935.078985 -4.189827922 -8.319714867)
(1943.751458 -0.6586341752 -6.52627307)
(1943.161257 6.193821182 -26.39025939)
(1960.519563 7.822914357 -19.38519866)
(1952.223354 -9.512255963 -1.596410021)
(1961.856254 -2.947164252 7.306415347)
(1963.664297 3.659892512 2.411278932)
(1957.678314 28.80037854 15.6533951)
(1944.226905 38.42308725 20.40645099)
(1932.711836 40.29403224 5.06093762)
(1942.348207 23.45754775 3.775730656)
(1942.87752 15.86018459 20.47143711)
(1945.89752 10.02409289 24.03149945)
(1953.08129 8.042673148 20.13038311)
(1952.8915 13.16335201 2.927615522)
(1933.80587 27.16175643 7.336104681)
(1933.485921 27.51136885 -1.00826372)
(1924.833199 23.76613494 -4.561464889)
(1943.522904 4.126091389 -6.901488615)
(1944.540116 16.26856505 13.65027376)
(1944.05543 8.899920685 -10.69290083)
(1980.030331 7.699051134 -1.396799193)
(1973.097934 -15.28898998 -7.245684248)
(1958.531575 -10.58459295 -3.766728482)
(1951.681284 8.299075393 -30.51349971)
(1952.438585 4.900172064 -24.70053785)
(1948.267779 11.83182648 -33.14299116)
(1952.01618 2.507148483 -9.896352081)
(1960.754056 -3.470378757 11.3951541)
(1956.778037 2.753540039 31.53418524)
(1944.045999 -3.098644606 34.62592615)
(1951.570524 21.85747844 6.397104353)
(1946.208072 16.20682156 0.1067385231)
(1960.816432 10.34764791 -7.722144958)
(1943.535534 -1.255043997 -15.22293112)
(1933.826923 -0.2188991965 -7.509318309)
(1954.308925 -2.30441567 -6.322362975)
(1958.303251 5.778135802 12.35211957)
(1950.006729 21.47822855 27.58651716)
(1954.409032 12.00521636 26.20248459)
(1937.68639 11.1562909 5.054140288)
(1942.508187 13.6234531 -8.44540503)
(1935.765659 7.972615088 -9.615262794)
(1948.690066 -10.46906529 -20.85600733)
(1947.548573 -2.937821494 -9.772334198)
(1977.32849 -1.308584294 -16.22995826)
(1964.662873 -9.91363737 -26.87850022)
(1958.381316 -3.702187184 -16.04683704)
(1951.37262 -3.155175621 19.29640846)
(1948.305788 10.12238223 21.91079572)
(1942.161889 24.20827421 24.53526234)
(1932.304443 25.5639309 15.19791452)
(1932.036505 37.81913414 2.692807241)
(1929.712841 35.71179321 3.755123687)
(1927.442972 30.89874639 1.779343654)
(1941.501003 25.1833909 12.90362877)
(1942.614175 27.77660756 19.92201048)
(1939.38779 11.97902615 26.0964648)
(1954.344548 -8.403785498 11.81337027)
(1944.149274 -15.20145295 2.886696139)
(1946.907504 -23.18691433 -1.715822876)
(1947.543283 -4.182945866 2.902633796)
(1960.003062 8.124551314 4.639109258)
(1967.006817 20.48653852 4.487923148)
(1941.854845 -9.479278447 11.50789607)
(1950.061766 1.565313971 13.12345435)
(1959.851262 6.714298307 5.955527459)
(1947.65712 13.17368659 8.697639154)
(1943.389749 19.37153187 9.850756933)
(1945.577187 22.22067096 -3.360588999)
(1949.372024 22.56682483 7.453364925)
(1961.608867 18.63498077 -3.192106196)
(1944.907452 -1.083827268 -4.05564262)
(1928.72001 -1.103597829 -0.3060231256)
(1943.16866 12.31655005 -3.315964547)
(1953.95507 1.390049966 -7.491192578)
(1959.876093 -1.819510698 13.85311538)
(1954.075366 -3.101733234 17.08031238)
(1953.066562 -0.9741710382 27.22992894)
(1960.378119 -4.262783473 23.13725033)
(1960.450126 -4.166005044 -1.380184675)
(1963.001028 7.403935173 -11.30613897)
(1950.341969 2.030172778 -13.42634037)
(1938.938153 -10.78375622 3.153220902)
(1949.569498 22.39722256 19.1662274)
(1954.561359 5.937905687 15.9551027)
(1965.549629 -4.498866723 23.89907331)
(1975.053607 5.096607572 6.081457877)
(1970.833552 16.0228127 -8.003002147)
(1964.827693 -5.668129983 -8.368483747)
(1950.635917 3.743092541 12.02128844)
(1963.253394 11.22546758 8.481965512)
(1970.893225 7.541571947 12.04037808)
(1980.892011 1.156238675 7.362998653)
(1967.399749 8.885761021 7.287348689)
(1952.115648 14.69860176 4.038506904)
(1937.481842 13.05738427 -24.17733469)
(1924.377352 15.9936201 -14.86107897)
(1946.807368 28.15555974 -3.658221482)
(1966.778723 13.11732712 -0.9571092047)
(1962.597089 5.981697913 -2.526732302)
(1962.582964 -0.5306229386 4.861203603)
(1946.549438 -10.68232642 9.164692828)
(1939.369531 18.06924108 12.39529257)
(1965.458801 -3.036925114 10.90649002)
(1954.128558 4.848241187 13.47678379)
(1949.136625 -0.7988888634 14.08601899)
(1953.326125 -9.414057071 -15.26456341)
(1953.952552 -10.28022296 -16.5543996)
(1958.50073 37.18675687 6.220329574)
(1954.867841 34.87908342 4.343779898)
(1948.283421 5.113858383 9.043603022)
(1955.104768 17.60627047 -0.4909373053)
(1951.408229 8.705461891 -12.35665469)
(1951.632681 -5.232608349 -9.760775807)
(1950.698529 -16.69582607 -6.15883058)
(1960.420763 -16.42973157 4.051997817)
(1943.551167 -6.68743002 -1.874216383)
(1944.002432 -14.54648735 -18.39898747)
(1935.842254 13.40097239 -17.11085999)
(1926.41661 20.79949788 -7.103196979)
(1943.970935 27.41828009 -4.142691251)
(1941.377218 19.3694191 18.79130085)
(1945.870357 21.77405898 6.602858222)
(1938.403552 17.33737207 23.20659654)
(1936.858027 15.92115751 11.69123906)
(1968.240792 -1.871920042 0.1594625938)
(1975.366477 4.602517345 -13.39200492)
(1975.07254 20.33002324 0.9944323871)
(1963.779528 -8.790234497 0.8833981741)
(1961.801446 -1.89690747 -0.1688457685)
(1971.39183 14.14724823 3.920591386)
(1958.659224 16.51865087 16.70075818)
(1950.057646 9.496514093 25.21591061)
(1943.777243 21.89405403 20.63156139)
(1935.808239 2.928122691 6.51671239)
(1941.094428 0.2123366838 7.184453945)
(1951.421363 -1.987967916 17.611621)
(1943.115447 -2.514417499 4.92893994)
(1936.133423 -10.55806158 2.411055145)
(1925.773973 -38.23294633 24.63654006)
(1927.559869 2.706510623 26.36550907)
(1940.893295 13.08314011 16.59634793)
(1945.090889 18.26793776 22.14087356)
(1965.676022 -9.360172853 -5.434286583)
(1968.001236 -0.8323444472 1.074873276)
(1950.903908 8.644829787 -8.727829964)
(1958.673538 -1.807888769 -0.801323473)
(1961.621627 0.6176006904 -7.094594167)
(1935.302104 8.12207977 -7.292672477)
(1936.774945 9.710819683 -11.80455893)
(1960.648134 12.9056726 -5.479492497)
(1944.496985 7.228673424 25.2147699)
(1951.068401 1.426109956 2.838850373)
(1946.536211 3.538668166 4.336353745)
(1961.874868 9.493538518 8.772029512)
(1966.910757 -3.810234262 17.70554614)
(1958.650857 -0.4665867509 7.089986634)
(1953.30744 6.247391656 12.16983622)
(1934.549376 -2.337530527 10.13668437)
(1940.827622 29.29760984 10.0714171)
(1969.792966 -0.5419021711 17.2505982)
(1948.935769 -18.52120418 14.33509701)
(1940.596546 -30.06721405 10.87296583)
(1947.472452 -5.050936444 -3.909673408)
(1951.937766 -15.59862746 19.72153373)
(1949.86881 -7.855020117 8.659359648)
(1940.833252 9.455526193 21.1668759)
(1964.711916 14.83425658 9.434193997)
(1967.789059 3.023497884 -2.23757145)
(1960.129941 -8.237168493 3.829192985)
(1931.928725 -2.873563448 3.956370279)
(1940.703331 4.537488577 1.056970622)
(1953.450268 12.73934293 13.39787059)
(1946.24798 19.75710915 15.55566506)
(1939.748172 1.840246322 15.34545035)
(1934.990283 2.203223598 -5.214005568)
(1939.553811 19.92630293 -6.406482756)
(1939.816043 -2.599499823 -9.148166637)
(1949.318878 -5.959148831 -7.413651642)
(1956.525337 -27.42266326 -15.92457961)
(1934.640432 -15.30148428 -5.832295925)
(1932.904101 -13.96791315 -11.87710665)
(1946.536464 5.725945142 -14.17505293)
(1934.95583 8.423072284 -36.55185563)
(1941.603557 6.334046789 -31.94302504)
(1940.9337 6.251243722 -30.57296382)
(1943.772169 -8.696987685 -1.609710754)
(1932.260528 19.02884462 5.030640776)
(1920.732991 19.60515127 4.51272445)
(1920.646618 11.93631302 8.269148013)
(1937.290538 -3.217875928 -5.606525326)
(1943.438423 -12.56630295 8.785061041)
(1937.732112 -20.12644854 27.45313499)
(1925.783141 -21.34315883 33.2821492)
(1931.09537 6.032761219 22.79197509)
(1943.024905 15.0327485 11.03424012)
(1949.616699 3.976779808 10.09663252)
(1954.091015 -16.98312104 10.59674134)
(1946.63408 -10.80364937 8.180172318)
(1954.061789 -8.237234005 15.71590641)
(1951.184409 -0.5041523683 -0.9288397585)
(1944.41105 -3.161907542 -15.8029171)
(1938.308024 -2.16258027 -28.02994189)
(1954.157723 15.75480725 -6.744662228)
(1932.787304 -3.645952618 -23.04214507)
(1927.010975 14.77602385 -2.992694378)
(1923.699184 -15.2647798 -8.667766743)
(1934.621328 -13.24818308 -9.975656247)
(1944.668261 -14.05604569 -9.34980624)
(1934.312455 -14.19787091 -10.31297666)
(1954.552585 -10.71184253 -14.14977213)
(1946.672665 -6.175603097 -15.77444767)
(1949.04135 3.468235871 -2.703481359)
(1961.524472 5.105715267 6.449346905)
(1964.03027 -5.91601525 17.01677842)
(1966.500772 -23.10732303 15.99128485)
(1947.622708 -10.45914021 12.6371856)
(1935.876814 6.11436992 7.234707242)
(1947.554693 2.824192263 2.538657235)
(1947.274303 -3.815819978 -1.404001358)
(1969.734243 -12.72070623 3.71479375)
(1972.517877 1.373709631 -3.637310641)
(1968.925922 5.726591632 -17.04089769)
(1938.840103 -25.24598223 -7.018181219)
(1945.031614 -33.71489202 -13.96308353)
(1959.18706 -21.53754495 -8.0600616)
(1951.817933 -5.884140475 11.73366049)
(1959.005533 14.35304583 -12.39328613)
(1937.423167 -3.674785045 4.875804895)
(1921.966071 1.376835681 4.58205476)
(1920.185144 3.782974547 23.36406415)
(1936.518061 13.16560538 11.93607804)
(1920.409593 11.5334632 -12.78598498)
(1918.989715 2.077471495 4.942686361)
(1925.664339 -4.277372047 1.661140788)
(1931.38961 -16.38653061 -0.1162116504)
(1938.415129 -7.692107887 -18.50577856)
(1935.030365 -13.98954381 -29.08448222)
(1927.078986 4.14557432 -19.95706183)
(1922.623722 30.55918104 4.52344511)
(1908.359678 24.95588925 1.990502773)
(1918.825079 9.886807632 9.789774712)
(1929.074124 -13.70619318 -6.560744289)
(1947.210964 11.11097331 -18.88821194)
(1957.324359 3.172003041 -4.985519181)
(1940.20653 -11.14506633 -9.516061609)
(1933.238067 -3.689167289 2.629719855)
(1902.049393 -14.88591418 11.6236865)
(1899.962821 12.261115 -19.21123539)
(1906.357375 23.58062176 -13.10144553)
(1930.402557 18.41099936 -4.522327075)
(1939.454155 5.626595703 -26.82638577)
(1953.148699 6.586547945 -30.94976314)
(1935.805439 5.875452141 -10.51221555)
(1922.574999 -11.04500491 -4.099956606)
(1935.52675 -8.093118446 17.61904222)
(1922.761196 -2.197925269 0.523516271)
(1933.231724 -23.10948195 5.091292029)
(1937.984758 -19.1121796 13.07265017)
(1959.728348 -18.65808965 30.08182243)
(1956.5307 -6.319551957 19.3027036)
(1946.381918 17.21984489 0.08406978747)
(1947.233631 20.69851073 -25.87241664)
(1944.096299 -8.057431729 -3.405140819)
(1925.43043 -16.83408632 -7.725105035)
(1942.950077 -13.57714363 -1.471084667)
(1943.194493 -9.072978051 -3.906404992)
(1938.816639 -4.129934448 -8.94776385)
(1943.374098 6.836150315 4.502556365)
(1934.074147 0.9683402086 14.51519292)
(1932.795552 18.09076608 8.295932642)
(1933.576549 12.84232556 8.449371458)
(1932.651042 20.21510267 7.261831954)
(1942.364521 -12.00593689 15.25691884)
(1957.563537 -10.3168527 12.03052227)
(1949.111172 -2.26194844 -0.9395777923)
(1949.629661 -9.276404631 -8.413189218)
(1935.483227 -3.55738177 -9.574959908)
(1927.231516 -0.9135225007 -5.528749415)
(1943.257174 -3.929232855 -2.114702051)
(1937.947518 -7.059530916 -2.939993569)
(1927.825322 -12.33386139 6.69935586)
(1938.578374 -7.293703327 12.51770013)
(1937.507749 1.921172587 4.926205717)
(1948.545584 -1.355369995 26.19147818)
(1966.996083 -3.923885721 32.58666639)
(1960.422767 -2.655382864 6.219454682)
(1960.351387 0.6489608383 -23.05695732)
(1973.794461 1.111839271 -16.97736687)
(1970.691634 -8.309961533 -15.18726841)
(1970.531878 -9.552800363 -2.137982735)
(1967.183928 -2.55148197 22.21728574)
(1958.975196 1.392370596 19.5909636)
(1943.17386 18.80953438 -12.20260432)
(1941.612438 28.45628452 -15.31548429)
(1935.025706 14.92707264 -4.943402921)
(1920.436527 -13.90310478 -4.756363122)
(1928.43348 -18.47177659 -27.35038866)
(1923.379401 -15.43440453 -11.36491608)
(1936.803264 -10.68400234 0.3697616415)
(1943.310479 -10.46603483 -1.689374034)
(1926.63234 0.0783874704 7.359914151)
(1920.459951 3.489382118 -2.51920535)
(1935.55987 -7.055487258 2.168734471)
(1939.179573 3.029423284 -16.00116022)
(1944.242636 8.892586732 -16.47622693)
(1941.7187 -4.903168095 5.292379296)
(1941.500537 -1.963459854 14.11697896)
(1940.229694 -8.586587208 21.34784234)
(1926.06086 7.505476022 8.834333255)
(1920.446565 -1.979316473 -14.7119997)
(1923.01989 10.65046118 -0.2957715654)
(1917.937571 11.24383549 -23.65167025)
(1930.52121 6.943781317 -11.79161156)
(1937.366057 1.342194767 -15.48297369)
(1942.986566 0.1728358739 -30.33418323)
(1938.720844 -0.8930052657 -29.03788159)
(1932.193127 8.08487801 -29.84489236)
(1940.023623 -5.993959807 -29.03508744)
(1947.904007 2.13518314 -20.61937967)
(1948.439448 -1.318222246 -21.64437703)
(1949.005037 -1.478161791 -12.24149921)
(1933.299119 -6.037886799 -19.56483284)
(1955.351816 4.766868923 -25.49083191)
(1961.543675 8.537064896 -22.27789443)
(1970.27489 9.244660825 -16.73289177)
(1958.449727 2.370412356 3.275103808)
(1958.659569 13.51819789 6.476102983)
(1958.595275 18.02403664 4.658323422)
(1951.476702 1.71227049 14.5797237)
(1940.832305 -8.296064971 5.768046381)
(1930.693769 -22.82703279 20.60075941)
(1927.040427 -16.43892089 29.17965589)
(1925.461235 -11.15544979 17.92853973)
(1938.099084 4.228804561 -0.3764402668)
(1936.736202 14.12959479 -6.243432137)
(1952.956204 12.48380241 -11.68821886)
(1953.16681 12.94566223 2.774542851)
(1932.654856 17.42279685 -11.11063927)
(1930.46029 11.74451321 7.716348313)
(1922.293406 1.954520122 -0.6974679227)
(1922.54745 8.676138804 -0.1617874327)
(1938.950878 6.669500973 -7.365434327)
(1955.292742 22.05982632 -6.540293323)
(1948.763464 10.12089807 -9.36333713)
(1951.413029 25.26929165 4.808290636)
(1939.363983 24.88554341 -8.115485928)
(1941.980249 20.59221909 14.90024942)
(1943.271993 20.47300904 6.980543921)
(1932.200732 4.089478702 16.88337866)
(1946.077879 -0.8158676214 15.22317246)
(1954.805575 7.056208795 -5.436032541)
(1952.397568 -4.089083857 -14.35787868)
(1960.418954 -7.317185178 -4.304536148)
(1954.526366 -18.03772595 -11.55353504)
(1950.733216 -23.9716865 7.607631174)
(1945.807826 3.395045319 7.411297172)
(1935.820916 -4.074096894 8.4481929)
(1940.288504 0.1210446701 -2.229641863)
(1935.221429 -5.289302996 -10.49064499)
(1940.398449 12.95260674 8.380085992)
(1947.296783 16.24503391 -2.02683926)
(1952.823055 28.67822225 5.271530878)
(1970.639041 -9.586470513 47.19130619)
(1960.026455 -10.85519676 41.37934225)
(1962.206394 -3.602952981 33.03028329)
(1961.224161 -3.193670579 19.49307166)
(1970.790177 2.955159043 4.726304474)
(1961.738662 -2.883627857 -18.18082144)
(1956.623511 -3.090037389 -3.714138882)
(1945.480206 3.945411544 6.254246269)
(1946.954427 6.965251481 2.112466643)
(1945.937027 0.3175249873 -5.199803551)
(1953.969361 0.216120038 5.65584767)
(1943.745181 11.34421387 18.72253496)
(1938.937617 8.485667505 2.857181432)
(1929.703887 0.3915762922 -10.1812961)
(1919.15902 6.25944151 -1.393854206)
(1923.944749 12.37695674 3.841013374)
(1946.17858 5.451017339 28.97739173)
(1961.042588 7.384149733 22.17749222)
(1972.717106 -3.86828674 33.23391368)
(1970.184222 -5.747903436 31.13282763)
(1931.515997 22.58495923 5.064117783)
(1946.967803 23.15415571 9.324598148)
(1938.920301 30.45532921 7.285021417)
(1953.827942 20.84298034 0.1716832229)
(1951.991824 7.609509477 7.500236031)
(1952.068164 12.26334217 26.66897858)
(1938.537638 11.63467628 10.13687262)
(1919.28009 14.70865974 6.600604763)
(1925.709135 8.670400341 13.99715039)
(1948.08817 5.954558445 9.070590791)
(1945.439634 0.1127291861 10.14333849)
(1942.927994 -4.053977354 6.042660735)
(1940.267102 -7.385179051 0.8997268472)
(1957.60144 -9.632931805 -3.150141027)
(1958.897048 -9.90778152 -8.814605866)
(1942.200462 -19.81066564 -5.22764972)
(1939.580312 -9.10018646 -6.279064633)
(1925.998255 -7.747129089 -7.684054495)
(1928.895559 20.06161085 -1.322169678)
(1938.37219 20.43596605 0.1150185121)
(1961.411317 31.62042887 -6.781380305)
(1953.940717 53.12053283 0.3991807785)
(1934.874439 36.7294514 11.48681413)
(1928.768545 23.20469293 27.73946738)
(1941.854536 9.062480148 35.5227211)
(1956.560241 -1.786193221 19.40335482)
(1971.419696 -11.78083625 11.48671998)
(1976.139418 -17.70770211 10.66376753)
(1965.167275 -15.15241748 8.630348413)
(1950.882316 0.2359155532 -11.30310349)
(1957.707589 8.81560883 -11.32304195)
(1965.373413 6.907772077 -20.16673006)
(1962.32842 -1.568781164 12.29979494)