/*--------------------------------*- C++ -*----------------------------------*\
| =========                 |                                                 |
| \\      /  F ield         | OpenFOAM: The Open Source CFD Toolbox           |
|  \\    /   O peration     | Version:  2.4.0-MNF                             |
|   \\  /    A nd           | Web:      www.OpenFOAM.org                      |
|    \\/     M anipulation  |                                                 |
\*---------------------------------------------------------------------------*/
FoamFile
{
    version     2.0;
    format      ascii;
    class       volVectorField;
    location    "0.0007";
    object      UMean_mixture;
}
// * * * * * * * * * * * * * * * * * * * * * * * * * * * * * * * * * * * * * //

dimensions      [0 1 -1 0 0 0 0];

internalField   nonuniform List<vector> 
5120
(
(1946.51747 3.669544498 -13.04788779)
(1942.429289 -15.75710549 -11.58381211)
(1940.691844 -0.1317826193 10.38058456)
(1961.523795 12.05007832 20.11666518)
(1962.463985 25.61688865 14.45247839)
(1963.617907 15.86893029 24.79669445)
(1962.387826 16.24332626 25.64196194)
(1958.017706 21.57606246 12.76526632)
(1962.345493 3.213936471 0.5242331992)
(1952.182401 -13.57730408 7.674987485)
(1950.826987 -24.18094777 7.560622279)
(1946.209783 -20.14514494 4.964190542)
(1960.587531 -7.484832176 -1.677806921)
(1945.952206 12.27029572 -4.505010832)
(1951.23861 13.91632053 -7.85593478)
(1960.163395 15.03085988 -12.59514926)
(1965.624306 2.244220131 3.032440513)
(1960.871105 2.687331963 6.783896118)
(1964.152623 11.32507966 -10.11333032)
(1950.75856 7.765875118 4.378575816)
(1923.095836 -6.667961894 22.77251838)
(1932.600547 -8.94306466 21.44440531)
(1941.552548 -13.85775231 9.365255786)
(1949.726783 -19.48770211 -3.819468305)
(1943.891774 -21.5730872 -12.03601759)
(1946.665525 -21.48414748 -16.75824018)
(1953.487033 -19.58320747 -7.021209779)
(1958.018728 -16.73122616 -7.782121097)
(1945.526786 -16.14527268 1.659091807)
(1952.160441 3.01524598 2.147371704)
(1967.008837 -4.237791837 3.79614602)
(1977.527744 12.56980785 -3.918511583)
(1972.898403 6.646418301 1.997842932)
(1962.232211 1.711832222 2.948690947)
(1958.495706 18.17206281 -5.541543002)
(1947.964964 20.90002547 -15.59606508)
(1941.826167 3.32437786 -14.89621758)
(1933.577676 9.941634466 4.56819119)
(1927.53798 6.588878073 11.43314836)
(1926.906175 1.424526307 8.193252781)
(1972.976527 2.970865224 6.988782167)
(1957.454493 -10.6884097 2.848216475)
(1943.334735 -7.978166443 19.35025091)
(1936.309482 -4.959522305 18.53846513)
(1924.362445 4.908565694 6.595526536)
(1947.295233 -9.712102852 -10.24788843)
(1952.485665 -12.93686093 -20.28738716)
(1961.196543 -9.555306536 -27.42676482)
(1971.005947 -11.11622849 -37.26537947)
(1959.357949 -2.180529358 -30.33046481)
(1948.93821 9.437260898 -17.00788432)
(1951.877926 -1.338616185 -11.00341866)
(1942.679366 7.952844493 -6.211476539)
(1949.788665 11.93512547 -3.841909939)
(1954.818727 -7.809501571 -4.077478255)
(1941.077132 -1.147626463 -5.442076441)
(1933.947493 3.049410364 -1.564457971)
(1954.886502 1.871475704 3.874045399)
(1964.460902 -5.429021636 -1.73743384)
(1976.130262 5.273341357 -1.548050614)
(1956.324446 -0.8252727311 -1.958427153)
(1962.189711 -5.078087458 -7.129131231)
(1975.168973 -4.57099242 -8.934126242)
(1979.770052 -16.88867817 -7.387846814)
(1978.337381 -4.088289781 -22.50926292)
(1967.021731 -11.65574954 -17.54848804)
(1978.235304 12.93390947 -14.35177911)
(1977.47303 7.949608887 3.470674724)
(1958.893389 2.858592428 21.44333352)
(1953.653479 0.3268891397 34.38928552)
(1950.418348 10.30731 18.91812197)
(1941.442508 6.130558484 9.705058284)
(1949.087341 1.465820456 14.81360344)
(1941.784203 -5.58149004 22.2084881)
(1953.265666 10.34593098 16.17159094)
(1960.882655 16.01064085 21.21918612)
(1952.855223 19.43401721 7.401612295)
(1961.304856 14.60917018 11.89095794)
(1950.213677 5.92530019 -17.71431347)
(1936.959312 -1.469176575 -14.09108887)
(1957.188089 16.45498381 -3.266567251)
(1954.618149 3.523370847 -5.013212935)
(1941.247324 3.308188701 4.4994231)
(1937.195581 5.17545365 13.64318889)
(1940.252422 3.172428966 5.526873088)
(1934.882401 4.506461914 19.01693845)
(1930.635093 2.219383126 20.53702695)
(1954.417054 -20.83800984 10.15815386)
(1959.984018 -1.621532353 12.83722017)
(1965.425905 -19.68421221 17.76073779)
(1957.806302 -13.43201769 14.71057451)
(1960.40327 -9.442514793 1.531702487)
(1958.779213 14.61216574 0.1531280978)
(1959.59223 14.91403669 -3.320804556)
(1949.036755 9.373407793 0.146705511)
(1955.872796 -0.190913438 -5.606637863)
(1963.188894 -13.32852765 -2.601483689)
(1955.033566 -17.06135207 11.67880033)
(1964.564972 4.764860786 4.521441087)
(1972.916983 7.839206071 -5.219703295)
(1930.520205 2.425263661 12.11666021)
(1926.089316 9.578560597 14.5691374)
(1934.391878 4.935354826 5.256547463)
(1944.06209 -1.508619919 2.491332014)
(1939.640748 -0.06728734425 8.131977149)
(1943.970159 -15.74466456 -1.467733792)
(1944.272704 -22.48853452 -9.213133343)
(1926.518545 -21.95283655 4.123302093)
(1929.409398 -19.42394806 11.79347493)
(1924.152478 8.782053872 15.82636932)
(1936.700742 8.808107261 16.22352335)
(1946.759121 14.09967181 28.66898731)
(1955.380816 3.44824143 16.98491392)
(1962.985077 -6.286176064 11.34511377)
(1966.838746 -3.340538115 -4.764749355)
(1951.74561 2.697939848 -17.78925699)
(1947.905617 8.931663867 -15.64459877)
(1965.117106 23.04739579 -15.56455777)
(1938.957232 11.32285083 -2.47033973)
(1934.173364 5.26615365 13.56520134)
(1958.12578 5.424894739 -13.14249089)
(1955.464156 7.385076311 -9.965906318)
(1953.934382 5.127160814 3.720051705)
(1946.773622 8.455715108 6.60478308)
(1948.146042 -0.8575014721 12.95144775)
(1954.460227 -8.496856497 -3.205932372)
(1957.950545 16.16011898 -4.945166167)
(1962.909033 23.58913397 -17.82207609)
(1954.610955 5.300785536 -13.35008088)
(1946.492641 -8.242724789 -21.3288953)
(1934.499501 8.995483009 -14.38411144)
(1941.960104 3.440223782 -13.61853027)
(1951.9553 5.004451523 0.09937633038)
(1961.098483 30.22427271 9.391276798)
(1970.9792 31.03282487 17.34770261)
(1970.650843 16.86098024 9.50835016)
(1962.009927 -0.8827789799 1.220226609)
(1948.431245 3.043364667 -7.62695137)
(1948.046826 -2.281833793 -4.106867535)
(1956.926481 -10.06911522 -14.78546563)
(1952.41297 15.86822875 12.42262178)
(1959.213997 22.15973822 16.27074672)
(1957.198776 17.12141044 7.148886552)
(1959.924516 23.74009163 7.128798567)
(1953.911998 12.13186056 16.32697373)
(1954.044536 11.58952555 28.08158804)
(1962.671792 20.55959797 19.99595098)
(1949.850156 17.38013195 -3.392580516)
(1945.242291 2.887464561 -3.820094668)
(1935.008425 14.7541267 7.295817845)
(1921.052646 9.965845423 13.93561124)
(1920.058908 8.348807768 15.33240997)
(1913.21277 13.56756799 4.80803199)
(1922.163372 -2.463424282 11.22727607)
(1928.960481 0.1189414245 7.146250886)
(1936.745464 9.108934237 8.327945216)
(1951.041032 7.783799651 4.292925624)
(1966.776536 5.481969347 9.853088945)
(1948.121155 13.64519436 15.86237406)
(1960.505459 18.48768871 26.81708764)
(1943.065621 8.050140488 4.346601755)
(1916.541123 7.533805987 -12.6362787)
(1918.526144 4.268516871 -18.146178)
(1915.236974 8.687687368 0.4060734313)
(1933.545955 23.41738202 -0.3621414003)
(1925.632346 24.25983047 9.868864966)
(1916.88144 16.17261304 14.90330209)
(1916.791685 5.018110254 7.603590013)
(1931.000621 22.15836867 4.734129907)
(1918.885759 9.051712597 9.047813264)
(1938.997707 -11.09931723 -9.668557717)
(1956.547267 -7.853708931 -22.70988452)
(1963.680683 -8.909174858 -25.06476145)
(1954.809486 -14.14013111 -12.3269829)
(1956.913642 0.1455059398 6.430483549)
(1955.143981 -9.558941944 24.44573301)
(1953.015086 3.084376182 21.94781309)
(1951.148537 -0.414167001 9.878463525)
(1959.050964 2.665302702 1.002892117)
(1952.604853 4.674802408 5.542047111)
(1948.401459 6.089240042 7.158016937)
(1936.038421 15.3830378 -1.375207457)
(1951.629164 5.755145969 -6.976741719)
(1949.059253 2.470022137 -9.039439152)
(1945.440177 -16.07331625 10.2602573)
(1930.343824 -1.424498919 11.70885837)
(1939.382043 8.795549894 7.135489307)
(1935.855549 8.916375158 14.97537314)
(1923.075068 -8.867877711 4.363484751)
(1934.66485 -13.21704696 1.094250002)
(1953.938569 -18.2329044 -1.976096743)
(1954.714848 -21.88093648 -11.64729689)
(1958.97046 -17.33783218 -6.130256051)
(1953.631247 -12.7639227 -8.690303635)
(1955.995755 -23.65395644 -1.35861259)
(1964.11944 -25.34579449 -9.426133278)
(1962.893005 -13.63585492 -1.057909793)
(1963.674711 -2.067810556 9.149014511)
(1959.941012 0.9980242051 15.90316244)
(1954.190438 -8.529188901 -6.433182123)
(1921.461455 1.001258555 11.28421603)
(1931.796457 7.659126011 5.405289152)
(1947.616472 21.50799611 10.63358933)
(1949.746629 17.95828256 -7.523446299)
(1950.323477 10.74837953 -5.960783811)
(1942.748769 -5.008702918 -1.159534375)
(1938.350488 -1.689412499 -7.212513331)
(1942.508652 -1.289594221 5.739432476)
(1953.412633 -1.560311299 8.143791104)
(1947.131093 0.1109827436 -7.636605574)
(1936.998521 -12.69131403 -21.62844)
(1950.912043 -17.25856971 -17.46902176)
(1952.77758 -21.503254 -1.981853318)
(1948.925465 -19.87513945 -4.624958434)
(1945.680828 -9.490991223 3.617121382)
(1938.065073 -8.932110539 -6.417143813)
(1944.578566 -10.20287578 -17.76699623)
(1945.608754 4.904839161 -21.70778345)
(1955.00102 8.627259948 -18.30676802)
(1934.05299 -2.373838684 -2.638183976)
(1946.648621 17.89623872 29.42232528)
(1947.630473 2.282675201 27.40853256)
(1937.228067 -7.557230005 12.50300237)
(1932.291316 -10.12368542 -0.5716247636)
(1936.255182 -9.103409653 -9.539098132)
(1942.666552 -2.465002408 -12.74110764)
(1956.375701 5.066301964 -9.94446908)
(1951.044636 -12.71301876 -5.181256607)
(1949.207613 -18.82172692 -0.1741391345)
(1936.509719 -19.29472634 13.91463763)
(1933.611814 -6.75881112 3.27736426)
(1930.576522 -4.098339542 -17.70175711)
(1935.180253 1.963961697 -16.83099042)
(1926.742111 -8.231918048 -15.52418459)
(1920.892665 15.44478625 -19.64779919)
(1912.695635 3.158682692 -12.01942245)
(1938.048553 -2.663612611 -17.74395551)
(1941.25789 -15.88541669 -15.49627718)
(1944.714157 -7.992370631 -2.786711541)
(1950.135753 11.56754717 -0.362358331)
(1952.410108 -23.47570385 21.34969327)
(1953.058314 -7.849070375 32.02408983)
(1955.500024 6.640717714 20.21728947)
(1944.13699 16.68554801 20.62946883)
(1935.335843 6.878919563 14.06241694)
(1935.8093 0.3394706893 -18.99955318)
(1940.704658 5.081022447 -22.3541256)
(1956.755652 1.840305294 -34.0693576)
(1948.020609 -5.818603133 -17.65769638)
(1954.429968 -11.80334073 -16.6766353)
(1972.696792 -11.15587844 -26.36968044)
(1961.311146 -12.62078463 -12.57400446)
(1941.284125 -5.526414078 -3.028944193)
(1944.613162 -12.16046957 -2.592321379)
(1953.245596 -3.185088443 4.752711478)
(1958.116123 0.02519777348 -5.178530093)
(1944.311406 19.79102469 -14.19523342)
(1952.885429 20.591142 -3.280993294)
(1956.816956 8.442399174 0.7159859865)
(1951.984283 0.6559851523 26.92977089)
(1954.726413 11.77045941 -19.63007378)
(1955.06637 9.70064674 -14.02581845)
(1953.749231 6.344205371 -7.111735555)
(1944.280433 -0.4011335687 -4.525384644)
(1943.072939 0.7023816482 -16.04702832)
(1940.677234 -6.701010411 -7.947205118)
(1926.910888 -17.04792371 -5.680704158)
(1912.294596 -15.73080453 -23.96232189)
(1911.487715 -5.119719362 -16.01799001)
(1927.417468 3.889970585 0.8815117884)
(1929.266542 7.451210715 9.999038161)
(1945.927814 3.678544291 -0.7825252302)
(1967.657827 -4.447722358 -9.164259851)
(1981.10548 -7.234140894 5.162818925)
(1972.225241 -6.399519068 22.66354768)
(1966.481384 -20.89123096 1.669028315)
(1971.124028 -20.18449593 1.981612141)
(1965.186274 -8.667282343 -2.295480036)
(1952.202963 -1.870093332 -5.10534879)
(1953.679526 -1.585357651 -15.43829429)
(1936.337437 -2.755200407 -6.915459955)
(1934.376936 -5.764250159 -5.032410117)
(1940.675624 1.874242694 -11.0396652)
(1946.575302 -1.283238446 3.318873367)
(1959.11457 1.232960364 13.32366814)
(1965.19952 -4.997754467 17.09425272)
(1960.931522 2.2267604 10.49236615)
(1947.817263 11.88283629 12.13368375)
(1953.546382 -5.298397585 27.92883836)
(1952.981401 -18.81769503 13.18988977)
(1958.833378 -3.277587504 8.37453978)
(1957.516887 -1.848864491 19.07179278)
(1953.610648 6.844897188 9.613272029)
(1958.407932 24.24145419 18.78340643)
(1960.858338 13.62830844 19.80277724)
(1966.898524 11.73872012 11.05663942)
(1966.36715 9.248819249 -5.579566137)
(1952.747862 2.912969825 -9.339126145)
(1939.198427 -0.2780401392 -12.74353396)
(1936.721417 -0.307063713 -8.650875353)
(1944.566853 10.25726262 -16.00812855)
(1957.694696 21.64610005 -10.38912843)
(1952.748833 14.75307596 -16.14178906)
(1941.486578 15.12189767 -16.76262285)
(1938.353303 8.600221073 -4.912959243)
(1943.135349 16.5602912 -5.322975673)
(1944.258803 12.68402108 -7.041741851)
(1940.17908 -13.6106614 -1.560707592)
(1934.11969 -10.13825195 -12.6395219)
(1935.381128 0.8927646381 8.484780872)
(1936.213126 10.02567643 8.092652594)
(1944.29421 14.80867718 -4.450614155)
(1940.269053 -5.89947404 -18.42908069)
(1949.581834 -18.72948733 -12.51857963)
(1952.222624 -10.27430764 -10.26001036)
(1947.713166 7.399474772 -5.26225169)
(1938.304586 11.25537048 1.026270208)
(1937.468808 16.0567196 -7.276605874)
(1952.957136 2.757987112 3.269573099)
(1963.655947 16.48719016 -14.63089427)
(1957.525085 12.97216883 -10.66918939)
(1955.83702 40.23762593 -2.642116961)
(1959.310002 34.27062612 -8.256075851)
(1956.904128 11.83177855 -12.66297406)
(1963.892492 3.656380237 -10.46081288)
(1949.58228 4.026863847 -24.02653031)
(1946.459063 20.02719425 -21.78111052)
(1949.987662 33.08613774 -5.307942591)
(1949.316881 28.52629946 21.2536811)
(1959.463144 20.22634214 10.95480983)
(1945.880269 17.14245172 -5.732763211)
(1926.64002 12.57702421 -1.600153013)
(1936.494536 11.2218177 -7.453675843)
(1930.793959 17.75828963 2.403763441)
(1923.842594 3.029531205 -1.978985125)
(1929.57986 -12.16429269 -6.43597668)
(1933.814972 -2.35171429 -2.197880724)
(1942.421772 -1.357330643 -1.599721473)
(1943.808318 5.811148537 -15.75333037)
(1963.556375 12.75375252 -17.10390285)
(1952.234951 -2.260092641 2.369120444)
(1962.588765 3.550919204 6.089620222)
(1962.63296 5.250820637 7.379368896)
(1955.82176 19.61843927 13.47803119)
(1949.370866 31.28632042 20.78857214)
(1933.311984 23.39050741 3.435373363)
(1934.827909 6.336292869 -7.764773687)
(1938.856499 -0.6846969945 9.128629798)
(1951.016055 0.2777480943 12.49843213)
(1954.41358 10.3958308 17.54640511)
(1951.386951 8.92667603 13.6592184)
(1937.560128 18.92843868 8.978719851)
(1935.144812 23.73284772 -2.007720932)
(1921.891491 29.17060443 -3.205131495)
(1934.442194 18.47311122 -5.464261595)
(1935.753219 24.54644085 20.74666705)
(1932.806519 14.44701918 -4.697785988)
(1963.365338 11.85680712 2.911869628)
(1964.319196 1.072420442 4.616693741)
(1954.821861 3.20400643 1.565720883)
(1950.35135 12.68808471 -19.38073296)
(1953.462507 9.398216598 -15.87159405)
(1953.725482 12.09858028 -24.26867633)
(1954.121534 7.514440854 -7.664783724)
(1961.964026 3.680100858 6.038682568)
(1959.80477 7.238405679 20.64311699)
(1940.375688 -2.345367847 17.88934012)
(1944.347268 11.28689191 -8.969755304)
(1934.760364 10.56560132 -7.313007568)
(1945.93125 -3.398223235 -9.672769807)
(1938.671502 -2.086594344 -16.02821817)
(1939.06292 2.042860728 0.8520376618)
(1961.045847 3.250473368 4.728485779)
(1974.455921 7.495611303 14.60588276)
(1968.407727 23.85626876 24.15820888)
(1963.715819 20.79752616 16.07545214)
(1943.179477 18.08116492 0.7941678712)
(1941.803725 12.70057816 -17.4905063)
(1939.068061 14.58230579 -8.136186622)
(1948.34792 -2.974215772 -13.81688609)
(1954.112316 -5.69795829 -0.7322764611)
(1972.87405 -0.09839423567 -16.56310477)
(1962.677422 -0.4628827076 -30.29434859)
(1955.104712 4.734420915 -23.35262284)
(1955.277521 -0.8705858959 9.814606178)
(1943.483668 3.243470023 19.85257019)
(1943.240727 20.79978174 18.03471197)
(1933.530464 21.86390157 14.39316308)
(1935.921292 27.65861424 3.46544022)
(1938.117724 27.96244736 3.678699051)
(1940.228461 27.10483673 2.037347082)
(1945.48156 25.71667621 8.29577924)
(1941.663562 23.89611189 17.26660975)
(1941.578308 10.93431065 25.8149058)
(1949.493012 -5.176196742 7.459677104)
(1938.06418 -10.10555502 -3.659797034)
(1942.601942 -19.39393354 3.168722878)
(1944.847791 -4.579645432 12.49204293)
(1959.719506 3.531166266 15.44780438)
(1969.541075 12.42299511 14.62095656)
(1947.204007 4.267041245 12.09012205)
(1945.013213 10.78720311 5.577293541)
(1952.324033 23.52959977 11.82152594)
(1943.748254 21.89133889 19.1003267)
(1933.595018 23.97943354 21.34726713)
(1950.958506 22.14770134 7.149844729)
(1954.848679 15.37098299 4.636948866)
(1958.415395 18.32500774 -6.598941932)
(1946.450401 4.134588048 -5.171553029)
(1937.754494 -4.261128686 -4.142627283)
(1952.939384 3.080557842 -0.0862018673)
(1960.410283 -0.3164919435 13.55878451)
(1961.59704 -5.505169264 31.23501799)
(1962.231834 -1.684525748 31.80575505)
(1962.538976 0.7149669921 30.08787915)
(1964.817019 -2.233288526 31.30579488)
(1965.324753 0.4152446366 9.737907224)
(1960.778597 0.5835389011 7.986892491)
(1947.151886 4.221235397 0.5783619706)
(1941.048522 -1.843174033 5.690678886)
(1957.633467 15.2245649 17.7655379)
(1967.980032 5.958895994 16.25344642)
(1968.952319 3.559808241 22.69358302)
(1974.141404 10.09803258 2.365085423)
(1964.899132 23.70097067 -17.62667628)
(1957.13079 8.030139011 -12.34979364)
(1949.552161 12.96643209 11.761802)
(1962.116748 11.91343063 14.52489259)
(1968.767785 3.820982799 9.724045782)
(1971.244297 0.3881317091 5.650435061)
(1965.599706 8.256025285 1.234395558)
(1953.709708 13.43026301 -3.752255777)
(1945.478511 16.21783899 -18.15984855)
(1930.074886 10.49243911 -18.17912477)
(1948.594545 16.6604761 -11.64125411)
(1958.574547 13.11159121 3.230379027)
(1966.178114 13.20677924 2.689180558)
(1962.959239 5.288619225 18.25757983)
(1956.102683 -16.00183403 27.57818427)
(1949.630027 11.71112952 17.08426835)
(1952.703919 -4.537511409 13.19046589)
(1941.280251 7.031689198 7.532968986)
(1938.024915 6.013124956 4.492097073)
(1943.564385 -6.485013884 -21.02079312)
(1951.313313 -11.31876792 -17.48269861)
(1953.331829 20.43611538 2.502736028)
(1953.069037 21.85957013 -4.440937883)
(1944.10269 6.408600829 -1.73830613)
(1948.653377 17.01967156 -10.10643626)
(1948.744341 13.06080346 -10.14926703)
(1947.114796 5.172675969 -4.623773957)
(1953.202044 -5.2319157 -2.585058857)
(1959.58473 -9.219183353 5.322782788)
(1943.581862 -2.812285022 0.8004400834)
(1940.393059 1.05806945 -15.88830581)
(1932.473582 21.2498074 -11.69965918)
(1927.536925 25.01615254 -2.878870369)
(1941.345593 25.76922746 -2.414150936)
(1936.598139 14.7391821 17.18357268)
(1940.910678 17.10083921 8.063651373)
(1941.360739 33.65581337 10.71360971)
(1944.043474 25.11336926 6.032846782)
(1960.993122 10.45525288 4.373728256)
(1961.18181 8.189967826 -1.483646432)
(1957.576613 24.9973562 2.875503207)
(1958.027353 -1.29561148 -2.570305156)
(1959.899164 0.1217201731 -2.58686207)
(1971.19258 8.445129962 4.232408681)
(1958.872337 15.88999644 20.0868305)
(1953.679407 -3.426243508 31.33582006)
(1946.647241 12.05506759 31.09359623)
(1924.015432 5.427963328 20.91113871)
(1925.125471 2.940225181 19.33686751)
(1932.022053 2.641452827 18.98543796)
(1925.706182 -2.584159794 13.28432449)
(1922.542448 -15.50127664 2.602818916)
(1919.306924 -32.73182089 14.52002258)
(1923.137756 1.508513782 16.15466225)
(1933.721705 20.39171905 6.452531902)
(1937.246293 29.70355407 9.900178115)
(1954.104157 -6.134458639 4.612976902)
(1966.746162 12.16047708 7.74713842)
(1952.899599 9.32782069 1.78680181)
(1964.989907 9.980863709 0.2151451639)
(1962.002415 12.44268634 -9.932188637)
(1937.694104 12.94233911 -14.66626473)
(1936.231403 13.95233625 -16.44585527)
(1953.783287 16.10530626 -3.382912968)
(1937.41176 3.793945739 15.70225267)
(1938.409628 -0.03704078428 7.676009661)
(1936.303508 -3.931658697 13.44678936)
(1948.856472 7.533809819 17.91237747)
(1957.763114 -3.018898498 25.65308506)
(1952.418646 -5.459301821 11.04359238)
(1949.395563 8.117918771 15.23309449)
(1932.400552 4.246771362 8.862912361)
(1941.495629 32.59270538 10.10689501)
(1958.808375 10.12324911 13.65275559)
(1943.345299 -10.36302191 15.91860295)
(1938.375778 -23.35119574 12.41307935)
(1959.35151 6.30353016 -0.3261308193)
(1959.867039 -7.847959028 20.53162624)
(1961.078103 -9.191831523 11.34414269)
(1950.399286 -0.3725206947 15.1237734)
(1964.090426 6.020457663 1.914658853)
(1965.0214 0.6995917857 1.449324352)
(1953.735236 -4.944843536 0.03664388519)
(1933.532392 -4.796819693 3.93396972)
(1939.773156 10.60672294 -6.459971355)
(1944.591889 24.5637518 8.630815586)
(1937.47947 29.62479545 8.228793351)
(1928.766926 0.4158653676 5.528935074)
(1930.555322 2.273814086 -7.924423493)
(1934.524089 26.87935399 -8.398746649)
(1932.669438 0.2204848806 -7.721640329)
(1947.615986 -2.511663438 -4.752909968)
(1951.971029 -13.38354419 -11.20862205)
(1938.036612 -8.008173081 -2.829811754)
(1939.272745 1.371149768 -11.81876487)
(1950.34181 12.94124012 -6.233861834)
(1936.946669 8.456501912 -38.54371408)
(1939.59058 14.53711901 -34.08085576)
(1932.642577 16.20554513 -28.50836565)
(1933.756872 -7.045374336 -3.675844409)
(1929.86614 11.55993766 2.458992389)
(1925.680936 14.44445723 5.071565796)
(1929.556643 7.589102936 8.867585801)
(1940.37192 -1.083745968 -0.5504824301)
(1944.683646 -13.12480462 8.282417472)
(1930.508685 -22.5371597 18.62639054)
(1921.553778 -13.39327719 18.34535595)
(1922.909957 10.58558009 17.0644368)
(1933.417745 13.95408349 6.227168564)
(1934.613535 -4.472545142 6.162542345)
(1943.339504 -17.33162023 4.490101929)
(1939.219473 -6.486080527 6.493021192)
(1944.736437 -11.80259213 14.26180023)
(1940.106372 -3.185986324 -3.842812015)
(1933.091986 -8.078496721 -11.24190089)
(1930.505669 -1.95756216 -27.68131811)
(1949.006351 17.3554056 -5.017661797)
(1924.273585 -2.357876186 -18.48642329)
(1924.87778 16.29393157 -8.043362927)
(1925.089891 -9.078370851 -10.47731925)
(1928.592423 -11.25345639 -12.71061983)
(1937.450605 -8.15463003 -6.583524364)
(1932.26573 -7.486365559 -10.57285943)
(1951.871072 -14.04604381 -20.95749093)
(1951.001102 -19.87162524 -17.87597836)
(1950.636 -6.332325646 -2.637372233)
(1955.958961 1.986214548 7.938517972)
(1958.234778 -6.819424101 22.55935702)
(1960.89109 -22.19594309 16.82963659)
(1946.36209 -11.82068248 11.78062137)
(1942.740851 2.139384243 1.527926721)
(1954.028789 -3.399636592 1.001026123)
(1952.355188 3.392907202 5.681683151)
(1970.637603 -4.550426968 10.34946168)
(1967.404824 7.712425655 1.71950701)
(1968.155461 8.971594152 -11.13149378)
(1947.247435 -17.55495727 -2.347417697)
(1956.680809 -24.01493278 -8.642358406)
(1964.776528 -17.12225325 -5.536576522)
(1947.994188 -7.214417747 0.5580395445)
(1947.954683 8.529510938 -18.69567945)
(1932.828446 -15.53232597 -4.220633907)
(1928.742205 -7.353933778 3.619063591)
(1937.93839 0.2878466783 23.16438115)
(1951.569108 7.385341367 17.79237245)
(1935.34008 8.009771732 -4.537483149)
(1928.961214 -1.941160016 5.652137813)
(1935.168422 -6.308862541 5.593441282)
(1943.70994 -16.04366458 -1.316884833)
(1949.525182 -1.04164016 -18.72753155)
(1947.823232 -3.775446506 -23.80505906)
(1937.94346 1.273961724 -24.19801966)
(1932.708614 18.86495261 1.439079403)
(1917.416711 18.42766056 -5.505987314)
(1921.428774 6.907035763 11.55579231)
(1936.419083 -5.143414175 -10.74595622)
(1955.451054 14.80383965 -9.660852716)
(1957.636274 6.611970533 -0.6050664577)
(1939.31646 -18.31658765 -9.613523894)
(1931.130713 -9.505796047 -1.26481527)
(1917.73827 -19.91178797 -2.337204364)
(1917.177135 -0.4306130413 -19.61187579)
(1927.920837 11.15377815 -15.11353083)
(1938.622704 3.653280814 -10.5036353)
(1944.360761 -6.331875493 -22.29754372)
(1948.418999 -11.11133478 -33.09534251)
(1939.404939 -1.394548644 -9.032543106)
(1925.442034 -16.69293116 -6.060795531)
(1935.024946 -9.668786851 12.25392139)
(1921.328359 -13.97765269 -2.853143418)
(1934.985907 -31.04884326 6.9577117)
(1936.219636 -14.64232346 22.87115015)
(1950.105953 -0.8891949732 39.2328818)
(1954.593083 2.132690486 25.11675684)
(1950.525864 23.08564879 10.35077581)
(1956.122191 26.90568876 -17.41191882)
(1953.829023 -6.134405087 -17.65657173)
(1936.018023 -6.383978938 -17.58005199)
(1944.636296 -0.5404620612 -20.75704087)
(1948.069313 -2.017477951 -15.9046183)
(1942.323721 -3.617896702 -7.556684685)
(1946.122163 8.110589853 -0.1170912057)
(1938.77309 2.051592716 15.89465782)
(1939.625865 21.7633101 12.89139979)
(1938.667742 20.66344523 1.050741931)
(1933.37458 14.23904583 0.3285902762)
(1945.97325 -13.4115718 12.20344321)
(1956.015301 -22.122761 9.45514868)
(1944.21845 -4.94670954 -2.00473329)
(1944.965857 -8.867135743 1.884130169)
(1933.680638 -1.172097219 2.079678855)
(1938.159573 2.53627418 4.125254487)
(1948.803083 -2.778871887 4.303099929)
(1938.960459 -8.063182028 2.206620173)
(1940.997845 -6.865663805 -3.818792954)
(1949.826435 -2.177141165 -3.518260074)
(1935.305973 2.283933051 11.52470613)
(1942.445132 0.7069447641 17.55634893)
(1950.193909 0.661159094 19.86455001)
(1946.096874 5.331622194 4.393914027)
(1940.905394 13.61634454 -24.6636071)
(1952.662331 14.43076709 -17.23012408)
(1951.881121 1.359035643 -14.85236546)
(1958.04798 -2.855351678 2.687249914)
(1955.977602 2.740700798 17.93601586)
(1950.550695 7.924464165 13.64597083)
(1943.1891 17.72869811 -5.049344365)
(1941.386926 22.53560714 -9.391597125)
(1936.956434 10.39744301 -8.711509571)
(1919.655164 -13.20710556 -13.6623025)
(1921.255233 -17.01090594 -23.36109698)
(1918.27019 -15.71112085 -10.54977485)
(1938.256617 -16.90703442 -5.338122012)
(1943.212581 -11.62518979 -0.5131907182)
(1930.806108 -6.208286411 6.894586937)
(1924.934911 -4.769065717 4.931284963)
(1936.069198 -12.04558661 -4.621056751)
(1941.460365 -0.1100721255 -9.660170148)
(1942.4897 12.11957078 -11.48284348)
(1946.217984 -2.249097407 4.00868399)
(1944.956737 4.967845412 9.394378551)
(1948.391988 0.3511720172 18.21063852)
(1943.362991 -5.082366317 7.278110601)
(1931.200405 -0.7000489573 -3.966396004)
(1921.324727 3.247788454 1.876983066)
(1917.542274 10.17142324 -9.883842117)
(1926.202545 13.64990701 -1.104854681)
(1944.408807 12.29948146 -3.672170693)
(1943.980088 3.968655158 -8.37384881)
(1938.447444 -1.703780315 -15.42129545)
(1939.745362 -0.8901316254 -19.65616494)
(1947.082675 -13.49586595 -20.04819799)
(1954.188176 -7.811085014 -14.66117582)
(1948.696121 -14.13511383 -23.1729711)
(1950.516329 -16.75178477 -6.350826706)
(1937.25718 -4.661176317 -13.61869241)
(1950.028798 0.8163124771 -24.24737804)
(1955.948645 1.76408912 -20.66890386)
(1968.028894 -2.492940033 -14.80816312)
(1964.275709 -5.105462208 -2.782725272)
(1962.314472 2.635892171 0.9808662917)
(1961.95285 7.811060768 9.19592821)
(1954.241648 3.105287482 16.21192833)
(1943.294698 -4.366942516 0.5611683319)
(1937.289324 -13.86943999 21.98898635)
(1938.672831 -15.27821982 28.1318851)
(1935.37914 -11.62632519 11.8896569)
(1936.106297 -5.317121235 0.5638471951)
(1935.450414 6.339768541 -7.38079687)
(1942.744609 7.764180216 -13.26827434)
(1935.253384 9.050658785 -6.567486497)
(1928.442896 16.81336388 -24.49778254)
(1930.871097 14.69841159 -7.262871823)
(1925.526667 9.337031597 -13.9895187)
(1923.718153 14.22461044 -13.29565951)
(1933.049296 -0.5109902359 -21.23262458)
(1948.353672 17.34687382 0.02784109162)
(1938.61227 9.741152542 -1.041327794)
(1942.364116 17.81565065 12.42263414)
(1940.171893 12.44090329 -1.885059143)
(1933.552066 16.78004816 12.03391938)
(1938.373503 18.24834792 8.937939182)
(1931.543589 6.473463986 23.1977396)
(1948.245157 -1.328486901 24.37586679)
(1953.217251 9.310333278 6.474716659)
(1946.298341 7.258615429 2.169036015)
(1955.499369 -5.362376823 -2.053237293)
(1948.568823 -15.57108204 -9.549363528)
(1945.16009 -15.86523984 1.350383842)
(1940.288083 2.088527798 3.293579674)
(1934.791045 1.38590309 3.140398873)
(1936.37623 4.805527752 -2.29581265)
(1932.080979 1.952834944 -2.870454654)
(1939.294627 12.09350003 11.62733692)
(1937.490173 11.00070125 -0.6305719983)
(1946.273771 21.8064199 3.1778352)
(1960.790548 -8.762358604 44.48219102)
(1953.221166 -5.148166138 41.41816583)
(1956.935316 4.435400913 44.42326615)
(1968.848358 -0.2464238874 29.76228695)
(1972.02892 6.102381846 10.75290382)
(1954.981885 0.7114523363 -10.4318981)
(1952.907353 0.4588786911 5.463162705)
(1943.811581 13.20675379 10.66654523)
(1942.956319 9.767672195 -1.341576947)
(1951.402341 8.680190621 -5.745497739)
(1953.995807 8.081673609 2.762967632)
(1947.047721 3.905360897 15.44892433)
(1943.669924 0.3204225163 -6.466035528)
(1939.352469 -4.675799178 -13.9706486)
(1940.448285 0.7122054647 -2.612298197)
(1940.033917 3.3576841 1.838222122)
(1954.61792 -0.5546448781 23.66158639)
(1960.614255 7.301664714 24.98897622)
(1968.799735 -0.4798846581 36.32843079)
(1967.838351 1.457494241 31.83027271)
(1936.091449 10.60646443 2.374407071)
(1940.84794 5.098932091 15.19535645)
(1935.547642 21.51055016 2.962493491)
(1949.289715 13.84194331 -2.029240363)
(1947.312378 4.484150269 10.67690484)
(1952.144406 12.28272887 29.53732865)
(1938.191863 17.39714459 18.05480618)
(1926.058372 18.4596825 15.75385457)
(1932.154857 7.915991416 13.99723579)
(1949.743427 8.293868958 8.702108623)
(1946.98449 9.664754075 10.42183719)
(1952.503018 7.81979199 12.27430044)
(1950.895964 4.128479136 6.82625521)
(1958.642 6.905449538 3.982458353)
(1959.512609 11.57260108 3.933606583)
(1950.110493 -6.881335016 7.81374226)
(1948.497337 -1.367070001 2.706655244)
(1937.431849 -5.338392153 -14.0667045)
(1943.891098 8.442033903 -8.333458366)
(1947.430463 15.5088111 -10.7626376)
(1958.101335 23.45671553 -2.623551407)
(1959.167046 41.81589789 -8.264120726)
(1945.963327 26.10094716 -1.88555731)
(1940.782567 20.56942164 11.05594077)
(1948.568415 14.77932236 24.61160148)
(1960.191686 -1.423972984 18.78448378)
(1964.898566 -4.98452802 12.50280591)
(1966.89693 -3.940652978 6.74044664)
(1954.654154 -4.874717579 -0.3618271687)
(1943.525998 7.090140799 -3.734199671)
(1943.924707 11.31329302 -6.321389976)
(1943.816845 9.934229434 -13.4964718)
(1940.188616 12.42147056 5.923584365)