/*--------------------------------*- C++ -*----------------------------------*\
| =========                 |                                                 |
| \\      /  F ield         | OpenFOAM: The Open Source CFD Toolbox           |
|  \\    /   O peration     | Version:  2.4.0-MNF                             |
|   \\  /    A nd           | Web:      www.OpenFOAM.org                      |
|    \\/     M anipulation  |                                                 |
\*---------------------------------------------------------------------------*/
FoamFile
{
    version     2.0;
    format      ascii;
    class       volVectorField;
    location    "0.0007";
    object      UMean_O2;
}
// * * * * * * * * * * * * * * * * * * * * * * * * * * * * * * * * * * * * * //

dimensions      [0 1 -1 0 0 0 0];

internalField   nonuniform List<vector> 
5120
(
(1978.061434 -34.59282978 -17.86168885)
(1974.735383 -58.72177167 -3.928632436)
(1972.064444 -34.55884595 30.85341208)
(1958.362908 4.307457814 18.85057295)
(1961.707465 18.31497344 21.68203236)
(1961.579008 0.8287395001 -3.140021831)
(1963.381656 10.28981622 -7.945134422)
(1949.734636 -5.408156191 -8.992117272)
(1959.005236 1.560509022 -3.673784603)
(1953.612851 -10.26324584 -3.974740078)
(1970.716288 -11.01797857 -19.55416688)
(1946.795047 -18.98897442 -11.36892985)
(1927.101186 10.84776942 4.697081553)
(1938.424838 31.93598086 11.13122263)
(1964.318443 35.59143308 2.804231599)
(1964.128136 36.40640766 27.55821133)
(1960.481591 -2.685625451 52.01397083)
(1995.708648 12.49510999 56.43695553)
(2010.917645 1.439988454 39.72163588)
(1991.65367 -9.327876589 16.55713825)
(1871.471169 -29.84183511 19.52031211)
(1882.947717 -11.60228533 16.14444568)
(1916.322237 -5.995228784 8.540197468)
(1936.469566 -24.50746135 -34.13576709)
(1953.070303 -22.05317167 -43.43512545)
(1954.348788 4.80350736 -42.03067646)
(1964.322386 10.38249594 -28.54031916)
(1982.921055 0.5608672579 -13.00634122)
(1953.995571 -17.68565725 1.901749828)
(1950.627913 -15.31297953 35.49799279)
(1959.513309 -4.687454554 5.883035799)
(1979.380821 19.05060282 0.8713521693)
(1953.189959 11.75698219 -15.04923306)
(1948.567114 12.899123 9.334206744)
(1958.451078 26.2356429 -3.363809938)
(1953.772944 11.72911652 8.953767419)
(1941.791296 -30.55489574 -6.441421624)
(1947.713882 -11.04839862 34.08409197)
(1923.141184 -50.39419257 17.70592404)
(1895.218983 -29.19039188 15.42045286)
(1979.513648 -16.19294608 39.65258184)
(1945.188013 -27.24193962 13.434205)
(1940.984634 -22.58009353 16.11242186)
(1930.079337 26.95681217 9.741872737)
(1906.468599 18.92497013 27.76526847)
(1934.087861 4.825300688 0.1166886023)
(1934.110771 -9.177537198 -16.47083626)
(1938.795185 -8.308609168 -19.51206787)
(1955.899492 -2.767620261 -41.17402908)
(1937.825639 -0.2323577617 -32.06466293)
(1917.656523 8.252875822 -11.23841977)
(1919.211488 -9.856224149 -5.56399309)
(1936.106848 17.2343197 -10.83475023)
(1958.196534 3.485787099 -24.49942995)
(1943.697038 -20.32602783 -13.50011444)
(1932.151129 -29.83163176 -19.60517417)
(1906.980577 -0.9415794056 -33.64081054)
(1935.864299 -22.26799439 -15.43587597)
(1954.426705 -65.09846633 -21.07883941)
(1979.535376 -10.31468083 0.2258889034)
(1945.120003 34.57959756 -8.369664997)
(1955.418867 27.24789821 -11.78011866)
(1966.358884 -1.294934906 -13.36065353)
(1976.714156 -53.76231633 -24.75704054)
(1964.963417 4.795700929 -52.51113727)
(1960.378487 -16.04277798 -40.15533787)
(1951.055569 37.87083316 -30.75369227)
(1951.215483 16.99421426 -32.43462335)
(1933.794689 -11.16784062 -2.693718118)
(1928.500566 -18.22251093 14.52622768)
(1926.697737 19.68974738 18.06721687)
(1916.597546 33.54141825 -15.75752953)
(1927.811053 -0.5705951347 -5.541348489)
(1902.926139 -34.63382988 0.515946156)
(1927.123434 -2.143432036 -3.220277338)
(1971.068497 -27.60153606 4.892889701)
(1970.202138 -3.539867863 13.84752919)
(1965.942986 57.87047586 17.8360772)
(1947.71276 44.82944799 -50.45019325)
(1918.773374 30.07026633 -27.46495487)
(1951.30558 39.59667326 45.31032643)
(1990.103543 47.50358526 21.54525753)
(1984.751948 29.21356422 33.13413326)
(1965.827096 17.68008896 17.08094421)
(1961.007854 18.01838288 22.14734879)
(1944.575042 37.52548074 6.945046789)
(1917.406652 19.31963869 28.84147086)
(1948.082461 -36.90291593 38.17172132)
(1960.765526 14.94669356 28.7506916)
(1975.672513 2.318928615 34.78604161)
(1995.522415 -9.569706333 24.50797367)
(2002.4398 -14.88109844 9.67368781)
(1999.903665 6.46209673 36.95313583)
(1976.153569 12.9036347 29.67638434)
(1972.171821 5.021608174 64.09833474)
(1958.336976 -9.643240066 30.50214123)
(1951.18252 -22.38457574 5.342010588)
(1939.813391 -10.73589818 -0.03706264286)
(1956.231357 33.40643735 4.299061358)
(1981.479658 18.56801051 21.25812987)
(1977.375206 32.33749294 -0.3788294991)
(1962.302996 10.5159815 32.08405622)
(1987.725293 -3.831835286 13.44475654)
(1979.284692 -26.50553763 6.431093378)
(1956.390008 -25.28766593 0.8612979201)
(1965.610309 -43.2432981 -35.66212848)
(1964.884674 -24.6816502 -48.41746228)
(1943.595537 -14.24515 -46.52992129)
(1916.797093 -8.821998076 -28.34520585)
(1914.000663 13.43518562 -11.28883006)
(1943.508625 15.85355797 -1.328979555)
(1937.543703 7.20941747 -14.10362232)
(1978.891869 4.32191244 -34.25823707)
(1993.932624 0.7828793488 -8.826985308)
(1973.403772 4.054499814 2.865066961)
(1954.518588 9.768866788 -14.15449589)
(1948.722674 27.72745843 -15.81878392)
(1998.030032 50.31816277 -50.0279502)
(1976.017553 38.60894792 -17.62423066)
(1958.051603 21.06354004 5.049021026)
(1970.279899 -17.38579278 -25.43909024)
(1966.306165 -27.33556346 -10.04504661)
(1965.752759 -14.75019673 21.25964632)
(1964.395083 -7.785731453 22.69077357)
(1960.728782 -37.39825385 19.88901655)
(1956.973461 12.64806526 23.88588299)
(1959.666674 47.11113738 29.27409663)
(1954.18708 39.3843005 -4.710520587)
(1949.112977 5.647840194 18.82837858)
(1930.95959 -17.51451991 -23.76218488)
(1917.036515 9.304006207 -34.49034461)
(1925.471515 -2.892993436 -18.70824423)
(1925.067785 9.355477331 17.78052466)
(1935.301068 58.14933813 31.37037461)
(1958.097318 25.5511923 19.90903242)
(1993.082621 -18.2162364 -9.843402092)
(1983.354614 -1.410920469 -16.12221425)
(1971.922805 22.43761685 -19.13798026)
(1961.396154 -0.1579929791 -12.82916113)
(1972.894044 -5.847856345 -44.59941567)
(1937.503152 44.21748578 24.55345085)
(1936.243646 32.31537457 10.26410693)
(1944.22116 31.74215377 1.583223179)
(1962.970748 41.85038528 12.56956875)
(1968.933032 30.15613587 42.66199565)
(1974.560132 29.18363062 31.00290181)
(1997.780583 23.78620543 44.53447407)
(1977.400631 15.87032425 14.74518618)
(1936.241958 8.199275619 16.38862053)
(1907.64464 27.45329832 14.95526425)
(1895.542983 -10.65056549 21.73302159)
(1906.057502 -9.038054233 12.487056)
(1907.989448 19.66512459 -28.12724699)
(1915.507366 17.83071579 -15.85914584)
(1939.291766 23.91908825 3.867373951)
(1943.555022 34.40429098 34.37019998)
(1934.890357 -1.117961338 20.77085053)
(1967.229158 -16.91756525 27.74555279)
(1961.785671 -4.546134803 44.60332686)
(1991.931111 30.64949661 37.58568011)
(1914.862635 3.084883526 28.14710755)
(1870.42815 1.467858418 0.4936959445)
(1875.204615 33.68349557 20.2814393)
(1880.484297 39.41438168 18.1293769)
(1942.506492 50.54799509 33.64090442)
(1928.792562 58.2658438 18.91176635)
(1904.487931 44.3913852 3.512620288)
(1878.697579 -4.069224228 -12.26829754)
(1910.091877 18.54975442 -15.11982367)
(1899.95132 -30.2094532 -10.14434993)
(1899.089926 6.021786626 -38.08053053)
(1916.16181 3.012601388 -35.83201492)
(1930.540369 -2.50476968 -34.43043917)
(1917.354806 3.904444819 -2.158806007)
(1938.522642 23.76446854 28.99935516)
(1932.787952 20.2368089 19.16571104)
(1897.94344 45.40600966 20.92776332)
(1915.817321 40.68014576 19.33815895)
(1924.325371 54.28963767 20.52454839)
(1927.533095 14.31391755 14.14482262)
(1963.590483 28.37112796 -9.207922359)
(1975.886837 47.3027406 -3.092353444)
(1978.750624 25.85954932 -25.64661818)
(1966.100314 37.45829677 -20.11584347)
(1928.264682 9.536190585 -19.89394223)
(1914.412547 26.58925309 -42.59602403)
(1923.560254 26.13633506 -43.75948383)
(1939.088714 20.46499056 -29.81174939)
(1915.473802 -16.48284459 -34.70093172)
(1921.584471 -8.436335866 -49.92421939)
(1946.602973 -5.31097205 -44.7172017)
(1959.644738 -18.7157289 -29.02190937)
(1951.648519 -7.912528805 -7.921971093)
(1927.085686 -20.55513955 5.239603596)
(1919.732364 -42.10233951 16.24504861)
(1926.533186 -64.90149307 -12.73486824)
(1975.871654 -61.83712602 2.728738789)
(1951.478926 -11.46402652 34.64946986)
(1947.483238 11.54478052 13.87390241)
(1967.69147 -2.497041508 -24.19430308)
(1916.772016 9.909032318 -21.12564733)
(1971.315575 20.18265912 -4.06039056)
(2019.237628 45.85600906 15.88906942)
(1998.937534 47.24308111 3.627036534)
(1982.091643 45.06419733 10.73189148)
(1972.522597 8.032682132 16.54114614)
(1960.227712 22.53602777 0.08622398255)
(1962.741447 21.6314407 -4.851677678)
(1975.405553 -21.01583463 -17.8590414)
(2013.335471 -11.4098893 -17.54088592)
(1985.6282 -21.44084469 -10.68822162)
(1937.53033 -27.63143727 -14.72673967)
(1935.994248 -35.95318405 -1.790558482)
(1943.609861 -21.23457014 -25.51759877)
(1921.127558 -6.223424926 -39.83945423)
(1912.182424 -27.22358148 -28.08562944)
(1953.582793 -15.66799578 -46.25478885)
(1951.408741 4.106163313 -75.4408757)
(1978.392678 12.51611029 -69.07538775)
(1939.161876 0.9891778265 -21.78500791)
(1953.082463 8.797183233 51.26194733)
(1942.644239 -12.97223694 31.74285126)
(1931.970428 -6.046009332 12.87432683)
(1936.111536 21.49103479 6.623874828)
(1934.470571 40.92249503 -1.608955738)
(1948.93292 25.50933609 -24.55257027)
(1972.695789 21.62880808 -9.350921693)
(1948.370838 -0.9644723311 8.554977519)
(1953.089692 5.565653078 26.82035084)
(1920.903225 -28.26641593 42.18803121)
(1906.513887 -27.06772987 15.75260285)
(1904.981739 -39.07457607 -21.57234262)
(1937.768937 -17.8626734 -52.46493577)
(1919.331183 -40.71359431 -66.47808999)
(1937.830675 -10.66609267 -28.67292615)
(1934.107971 19.34885883 3.087437437)
(1947.515081 15.03006569 -27.86538305)
(1963.776813 -14.69772628 -31.20157984)
(1968.167007 -10.91850214 17.50599707)
(1964.196243 19.22575924 19.88226419)
(1949.017225 -22.53143304 -6.648689481)
(1948.183061 4.10409276 33.2006049)
(1942.58307 14.35335988 50.85329645)
(1935.482373 13.69158877 62.13680404)
(1923.774622 21.79449694 49.19059536)
(1912.429341 12.9092513 10.49937118)
(1937.556878 -6.053321874 8.253751234)
(1935.51968 -0.8369270338 -8.596141074)
(1919.989404 -37.3241193 -14.78851613)
(1938.228232 -75.36026595 -29.34211807)
(1978.714489 -45.41789462 -36.94883566)
(1996.995246 -11.17117452 -12.18540675)
(1965.909914 16.21964917 -33.38774722)
(1955.05848 10.2887085 -30.18726398)
(1967.755736 -20.17817847 -23.78570745)
(1983.986648 -8.124956848 -50.03878679)
(1967.028206 8.917302976 -71.44476656)
(1961.288719 14.87847379 -60.87646325)
(1958.488083 3.756613684 -81.05453208)
(1948.512249 -12.68228145 -29.39949429)
(1948.060188 -20.80709061 -27.54034643)
(1939.046323 -28.8545139 -34.11505449)
(1935.4426 -49.00212723 -44.04959593)
(1940.649556 -37.70904386 -46.51345756)
(1940.257471 -14.96393147 -23.71818686)
(1950.299113 -36.01145348 -12.35443841)
(1920.687028 -47.89169984 14.91018228)
(1904.67293 -44.61229774 -9.077315768)
(1902.430323 21.85293656 -11.71973146)
(1913.401759 84.68424586 -23.50042271)
(1918.970056 54.26577202 -15.23391909)
(1934.575377 35.41592881 -24.84735395)
(1955.30362 13.74633255 -21.77466949)
(1985.949212 -20.17435923 14.59442354)
(1975.037104 -16.99115645 22.87556882)
(1950.581495 -31.77654244 18.43328624)
(1961.20107 -21.44351114 17.87208912)
(1986.765195 -5.502108276 -12.80790293)
(1974.633209 -21.65466116 -24.3976878)
(1949.50393 -19.49188086 -12.14739142)
(1981.980737 -10.81506961 6.631748061)
(1987.759449 -14.12959651 14.19264983)
(1988.664142 -15.87671253 -0.0714472959)
(1993.004007 -21.20931368 -6.862312643)
(1984.917339 -26.02885734 -21.85131987)
(1995.298435 -22.6325851 1.327274789)
(1974.458738 -4.407464365 14.10003435)
(1970.568861 18.94923665 8.346109576)
(1947.324587 -5.039041442 8.49872372)
(1955.790959 -31.50839666 28.9845381)
(1938.455147 -27.37301499 18.23220117)
(1924.29888 -16.71702328 34.648327)
(1924.948428 4.320034989 14.24514951)
(1929.121842 33.38834057 -15.14023754)
(1936.106262 53.96128957 -17.85952355)
(1954.197995 3.292808243 -4.536647185)
(1976.24927 -11.78071133 -7.760177211)
(1981.887896 -19.03249275 -15.87994271)
(1973.074997 -15.0724013 -12.0631334)
(1976.278388 -22.96328075 3.066123926)
(1916.860899 -4.90604543 2.226116877)
(1932.150161 14.94575089 -31.28431353)
(1930.820972 13.86066413 -34.72500138)
(1931.927773 13.11793902 -18.93241628)
(1944.484448 1.749013497 -7.777788087)
(1969.764943 12.23257934 -18.3979311)
(1956.471582 1.455977713 -12.84464926)
(1922.686795 -6.785809078 -8.996017799)
(1910.531355 -26.77671737 -1.980135584)
(1915.676344 -9.588450953 11.52753294)
(1920.770578 -0.1881990284 7.299242265)
(1936.186378 -14.63411615 -16.3376691)
(1946.573818 -28.74857684 -11.33907267)
(1940.024691 -23.47631059 -36.4525641)
(1936.98771 -14.86052283 -40.67000009)
(1902.99853 17.90885545 -47.2649592)
(1881.828517 9.760765078 -26.76993131)
(1899.653004 24.28759984 -3.200515441)
(1891.664976 7.933444247 33.06167427)
(1920.480009 9.599867476 -6.276132596)
(1978.896436 33.43739211 -10.49934553)
(1970.421675 32.01547074 -36.63015825)
(1944.679609 10.78103524 -37.90950279)
(1948.527392 0.2274357205 -24.78858497)
(1953.607783 22.28670202 -6.414804685)
(1942.313733 30.21154114 -27.33054862)
(1938.236633 46.35678126 -9.221760461)
(1951.099045 53.9373923 12.96786634)
(1959.629284 61.01665229 47.16289272)
(1981.978574 46.85116027 30.21457997)
(1971.589704 63.4893039 -1.306206128)
(1955.948699 44.07308942 -5.08033055)
(1957.738539 8.041559204 8.273958716)
(1933.434998 -13.4691792 16.13528552)
(1935.799789 -26.81222421 53.11130638)
(1933.230136 -27.04321815 13.53243169)
(1929.874399 3.378626775 16.88700988)
(1938.210534 -3.570167006 14.00312328)
(1946.020486 4.502869868 20.6121311)
(1974.818527 31.03998914 -8.643614024)
(1952.266084 17.20953882 13.01524261)
(1964.470416 20.24299237 2.963955035)
(1959.899914 9.466785611 20.5448243)
(1950.843349 -5.003234765 7.644720855)
(1964.842778 9.820484784 21.93790907)
(1935.136133 -27.98778602 -1.505532054)
(1912.241838 -45.08478832 -42.42492067)
(1927.173649 -48.75491949 -23.8272586)
(1966.642505 -29.4770093 -22.71103637)
(1958.546468 17.69554864 9.530660705)
(1947.140444 -3.031111326 43.94858345)
(1949.125691 -6.435547572 14.03904545)
(1940.052866 12.55357578 -4.964751893)
(1913.767878 44.09520627 0.5404231596)
(1910.129094 56.88646331 -1.616165736)
(1910.168295 48.64924229 41.40933007)
(1901.483886 29.89293468 11.99563261)
(1919.600907 22.77561285 14.226992)
(1942.995274 40.81497067 33.43090602)
(1944.706522 40.80160454 16.10579727)
(1946.44605 25.5762511 13.31023206)
(1956.758092 23.87557624 12.5451532)
(1971.435991 12.96420919 4.528901823)
(1962.00452 26.26303283 0.6907828185)
(1966.007792 27.57727696 -11.86284996)
(1969.097328 21.00766561 -12.79421685)
(1928.9358 0.002498559881 -34.2764377)
(1921.550942 -22.07348455 -57.46699068)
(1896.762158 -8.15921526 -31.94125793)
(1891.686841 -53.49076932 -16.78121452)
(1920.930422 -5.119592832 -18.96542388)
(1957.513323 10.01276295 30.31546074)
(1984.101406 22.26079991 42.54746685)
(2029.558146 13.35450158 22.29423187)
(2028.477867 31.61939181 12.966481)
(1992.853117 48.32412328 -15.62983902)
(1959.640757 38.83312096 -11.97180594)
(1939.78955 10.06192652 -43.35194237)
(1948.710745 33.88194127 -3.817432199)
(1947.304312 19.88647934 7.653752381)
(1973.651856 -13.9145823 26.17898227)
(1958.509787 3.804114271 -17.63740469)
(1955.884671 31.87063622 -41.98086483)
(1943.705209 34.08589067 -48.76989342)
(1971.327061 8.519308891 -29.15655998)
(1924.921826 -23.23560837 11.92981821)
(1947.284543 8.023701447 -6.331354392)
(1938.583376 6.614638168 11.07646863)
(1951.955278 -14.27770307 6.654389413)
(1970.561752 -1.951116029 3.383689219)
(1988.071159 12.90820587 3.002783728)
(1960.012302 27.66339636 -8.524848303)
(1938.567495 11.25766531 8.618193873)
(1948.599844 7.585555774 24.91239018)
(1933.529935 5.443583051 -6.865339569)
(1920.126825 4.915895816 -22.95724503)
(1929.862529 -8.171159064 17.62124938)
(1937.128828 -5.71565631 39.95280676)
(1958.86693 -10.27989317 47.94661064)
(1976.688508 -10.31882335 43.19941081)
(1963.11489 45.15495684 13.82193151)
(1930.989033 36.40433342 -15.38489565)
(1933.120764 66.42835516 26.78670718)
(1933.106564 45.62470498 47.42111574)
(1908.961137 35.56836897 50.2611468)
(1965.956706 21.94432875 36.44332578)
(1969.795101 -4.26729686 -3.049374415)
(1948.932462 17.40455054 -16.71545573)
(1951.283837 20.48178206 -8.667251025)
(1970.976859 -15.87226777 -18.25091205)
(1985.12105 -27.33987107 10.551612)
(1981.462481 -5.881987786 82.20846685)
(1967.051142 -17.18592914 86.32254901)
(1987.285742 2.668656132 77.03733251)
(1991.34404 5.851537905 38.77874021)
(1977.791557 3.698759047 55.18178185)
(1979.089224 13.35130622 41.13203144)
(1954.605357 -18.36145178 61.57707796)
(1938.596863 10.09712952 38.1355488)
(1947.08074 23.71233812 12.94367841)
(1980.236802 -4.880419885 13.83940028)
(2005.721144 6.017932945 17.09256244)
(1978.222559 25.51475001 19.40936208)
(1971.445325 24.88010575 -8.618922019)
(1948.188184 45.3221727 -44.72632745)
(1934.934725 47.53273335 -23.8309574)
(1946.462742 39.25901791 11.02209493)
(1959.122292 13.7258462 30.44478116)
(1963.260279 -5.819922348 3.721894227)
(1948.389139 -1.431491752 1.593420832)
(1961.420837 6.794068934 -12.81777391)
(1957.400391 10.49371459 -21.78998567)
(1967.052938 24.74451498 -1.925110464)
(1945.2923 -4.200539743 -27.04121763)
(1953.839729 -17.07642975 -35.07064608)
(1935.433378 13.09541217 15.04184966)
(1977.400503 35.84908512 19.03505808)
(1964.083162 22.67053113 58.27217706)
(1984.61331 -31.87732845 82.53125562)
(1980.849285 -7.634477484 31.35125345)
(1913.013487 -9.207011245 20.29770454)
(1898.159576 14.35963907 -12.41528564)
(1901.971839 28.11539896 -26.63636165)
(1909.485726 3.740402877 -41.11604059)
(1942.619908 -14.73963827 -20.54042908)
(1937.376187 -31.27066922 -8.97293246)
(1947.637126 -17.45589763 -30.96844939)
(1931.723869 10.24223305 -33.66270502)
(1929.514976 15.27949439 -38.63133041)
(1940.84512 25.97568709 -3.603705841)
(1933.64772 36.18912188 10.688786)
(1961.63096 33.36515277 9.447232696)
(1956.688365 15.7611394 9.725307778)
(1943.669276 8.223707738 8.417571676)
(1931.510182 39.4617969 -9.709371325)
(1923.618415 41.88189583 2.524665002)
(1930.519758 36.24297579 8.368379406)
(1933.179779 20.64004657 2.962266898)
(1921.627937 0.2352200854 12.14745285)
(1925.224949 2.32107788 12.68362971)
(1950.530872 84.25872452 -28.026702)
(1967.379501 54.96672581 -12.34379713)
(1939.092389 47.70503949 17.10823743)
(1918.175748 19.06665032 34.62094514)
(1902.748178 39.62376401 8.770370602)
(1937.57137 25.35689472 -14.85242384)
(1952.356282 8.125933594 -12.17472173)
(1970.453868 -12.69534217 5.388464117)
(1959.633279 13.64531372 32.17719008)
(1965.704206 -46.33177751 51.65485651)
(1955.024682 -16.66465143 61.63197567)
(1896.017343 11.36300134 55.08590413)
(1888.376539 9.217841548 47.30288971)
(1881.817589 14.62216735 22.54080909)
(1877.578178 -2.776962729 36.3828284)
(1883.48204 -29.70805685 3.153947222)
(1901.234196 -17.35844807 -13.75146416)
(1910.185266 -2.000452467 -13.75319364)
(1912.411798 42.10867713 -23.68914536)
(1914.199595 63.30033644 -26.06185226)
(1916.370879 4.383877644 37.37486746)
(1962.558638 55.51071464 30.00899112)
(1959.684059 11.64968552 37.53186603)
(1983.242213 44.04663 3.152418051)
(1963.104012 46.65194348 -18.14117771)
(1944.451066 26.55868939 -35.4953131)
(1934.640758 26.36488494 -30.02833597)
(1933.077244 25.75617877 2.940880277)
(1915.401647 -6.875968922 -13.84819683)
(1899.864618 -4.492224689 22.40479571)
(1904.359597 -27.25212991 41.8872653)
(1897.093317 -0.2583744948 54.25581424)
(1923.317059 -0.03907154328 55.58006645)
(1927.12482 -25.72255447 27.08955353)
(1934.63537 15.17574416 26.79130281)
(1924.798705 27.5399153 4.356716368)
(1943.512618 42.54196501 10.21401755)
(1925.766169 42.20456319 2.830263175)
(1927.492995 12.77027575 20.40878387)
(1930.878632 -0.6784244014 17.61238642)
(1997.415219 42.68630654 11.15650709)
(1984.073814 15.81356325 23.00470608)
(1993.604861 -13.07094689 19.1347578)
(1977.670226 -28.39041001 -2.103960536)
(1962.335278 -18.87054358 -19.32121916)
(1957.614025 -5.520121 11.31694894)
(1938.290156 3.007082214 -9.123469176)
(1937.899313 -10.03401142 3.872971076)
(1937.192926 27.44229569 -27.31136973)
(1920.38794 56.87185294 -4.394317171)
(1909.879442 60.68462498 -14.8334909)
(1893.579389 -4.148321594 -25.92642165)
(1916.556093 2.496637344 -16.48002605)
(1916.825817 51.34531788 -15.40900101)
(1908.940737 9.583611655 -2.985179649)
(1941.677343 9.511052473 4.526126086)
(1937.682909 30.66104629 3.586638158)
(1949.596804 16.81738591 7.390285243)
(1958.933908 48.72562736 -11.63865315)
(1962.496185 35.98708062 19.13050982)
(1943.896437 8.573200528 -45.4970408)
(1932.449386 43.63816143 -41.664978)
(1906.96297 47.03641793 -22.11380707)
(1899.60422 -1.413292258 -10.72146096)
(1921.947953 -13.13957267 -6.045392024)
(1943.058804 -3.680613079 7.034293795)
(1962.50278 -8.485351801 11.08039838)
(1950.276161 5.775817866 15.70075327)
(1948.43908 -14.8091748 6.766508242)
(1909.162372 -29.6611736 -7.457966339)
(1908.065946 11.95963072 -29.2894594)
(1891.675019 27.95880443 -4.791431072)
(1900.055465 10.20826016 -10.46609626)
(1888.265571 -30.57430669 -5.990698811)
(1909.022303 -18.44397704 -15.00136916)
(1915.971009 7.051634729 1.202967371)
(1915.767415 -22.87830771 9.744647681)
(1904.523286 -11.80014129 -13.20260423)
(1897.452314 -23.55907136 3.119102081)
(1905.948372 -1.312283826 -26.58405228)
(1927.528642 24.02881074 2.18275396)
(1890.065649 2.817586792 -0.1816326772)
(1916.251538 22.43206569 -28.46731926)
(1930.277518 13.99822127 -17.22732646)
(1907.046203 -4.124662804 -22.48488664)
(1914.186041 10.86731798 2.332992128)
(1925.799906 13.71600357 -11.39385711)
(1942.301903 -25.94437834 -45.25131993)
(1967.982763 -73.60493226 -26.12086823)
(1956.586103 -42.90108592 -2.390699757)
(1939.111665 -7.456790788 12.44637086)
(1942.066796 -9.339710112 38.02177284)
(1942.427293 -19.19621287 19.58900067)
(1942.175105 -16.34287414 8.935650848)
(1968.460661 -12.75503996 -19.85559937)
(1977.92504 -26.37213777 -4.674456503)
(1969.413175 27.59467258 29.47035897)
(1973.629746 22.51146148 32.32504386)
(1951.203283 27.79768215 18.69345822)
(1965.33009 20.87140064 10.53898645)
(1970.671776 3.873620337 10.66616881)
(1990.634055 4.256986721 6.865656486)
(1981.027277 -4.285288586 1.80017289)
(1936.87241 -11.08367442 -31.94747404)
(1914.131943 -9.294268506 -37.98507509)
(1918.119854 -53.49061929 -33.34010264)
(1950.92532 -35.93596622 0.4665069988)
(1996.792427 -11.29890089 22.50240926)
(1992.394714 -8.293487078 33.67743152)
(1972.492586 -0.7584600143 15.98780298)
(1952.9924 -11.6260104 7.361906712)
(1961.091574 -11.84991627 16.31910718)
(1976.348535 -15.13535566 -4.497667095)
(1982.548263 18.72594758 -19.3866614)
(1984.152172 25.23035021 -8.812654875)
(1970.536401 -7.340749093 -36.92070565)
(1966.803257 -20.67047899 -8.988434491)
(1946.695285 -2.676076556 -29.73981298)
(1929.5907 -2.433796615 17.09181155)
(1957.772013 19.74990689 -22.91301369)
(1983.593387 27.41606651 21.85329835)
(1958.775093 19.17146216 15.38818332)
(1936.555073 -40.56578303 -9.915894524)
(1925.011931 -26.39459615 -12.57274431)
(1965.28927 -35.14457561 -44.65089844)
(1969.159785 -38.75625652 -20.82170327)
(1987.082994 -22.94087931 -20.63394788)
(1958.598561 -32.20959308 -25.03886998)
(1958.212548 -40.09170676 -9.512218474)
(1936.093843 -57.23035885 -38.68652132)
(1949.929002 -22.65026818 -4.70633967)
(1934.006721 -33.56497472 -11.91840739)
(1933.407277 -14.74828684 -5.041679043)
(1916.857194 -50.7362547 -13.38999926)
(1940.772942 -57.24074502 13.11501815)
(1930.659362 -0.5619302068 53.73718446)
(1919.548035 55.53962602 68.29397425)
(1948.480566 28.79663089 43.45811063)
(1963.817517 41.90013521 43.28109609)
(1987.026798 48.48740772 12.00436105)
(1982.66526 -0.4368371551 -59.8808935)
(1963.523441 20.76426691 -43.18213556)
(1948.887779 32.32906623 -69.38293386)
(1960.146585 15.46238722 -45.62995992)
(1951.785241 -2.236504521 -3.803785807)
(1953.315039 11.44635088 -12.20871255)
(1952.081794 5.119663016 19.80168343)
(1960.432242 32.95054753 26.890029)
(1953.865446 44.010245 -21.03488386)
(1935.66227 -4.65609658 -21.5929865)
(1957.708479 -17.98255692 2.273843752)
(1951.237243 -58.557344 1.507207672)
(1930.33213 -12.56648689 -5.027813345)
(1930.855609 -7.62890086 33.0384652)
(1928.07084 6.251099064 38.34984675)
(1974.985419 14.16154981 36.65773875)
(1966.804529 0.955080274 25.13461825)
(1941.92689 -11.00240674 17.27864481)
(1982.287401 10.27451778 -36.78815401)
(1984.782589 13.72385134 -53.35400425)
(1928.914845 3.33692303 30.67826748)
(1924.143848 6.893864776 -8.348937216)
(1898.145233 14.86441094 -19.54518975)
(1903.895568 28.85979172 -0.9837750653)
(1884.518147 51.21766836 -29.32238485)
(1897.755747 49.03668841 -17.88685082)
(1901.203343 27.4084736 -13.95009676)
(1925.498298 14.6071279 15.26823867)
(1926.216316 16.79545565 6.566000657)
(1926.42017 26.63451749 -3.382433698)
(1943.233403 14.58674271 15.74494651)
(1940.731587 5.330048787 7.823288891)
(1942.655378 -2.972701681 -19.83386067)
(1917.489206 -11.2777779 -38.34979447)
(1901.32992 -12.95583481 -12.28765839)
(1904.365352 -16.46421072 -8.331349143)
(1942.268716 -34.08622956 -21.09520729)
(1942.923962 -15.04258074 2.954402807)
(1942.826511 -24.31383618 5.554449816)
(1938.104168 -29.07266683 26.85716598)
(1937.509892 -26.16067519 -23.82678748)
(1947.926707 -9.010948005 8.317357522)
(1936.895926 22.41716349 4.451486623)
(1960.427994 6.133208561 -0.04558889221)
(1954.700997 24.50966554 -3.920315308)
(1970.99426 25.10078974 9.523383339)
(1991.377529 -40.01444833 2.959491419)
(1962.882932 3.068877365 27.6918679)
(1916.657444 -17.13395851 7.859219049)
(1916.442215 7.187040183 28.43022316)
(1914.789163 31.37287849 27.13814227)
(1965.218507 44.67573429 31.22602578)
(1947.087061 15.83904916 60.30113347)
(1937.592581 -4.238898321 27.15482072)
(1964.12045 -29.85727341 13.22829133)
(1967.767163 -35.47800891 6.285254411)
(1973.704641 -38.70076859 3.842953446)
(1949.5303 -55.78951226 -28.1408423)
(1955.223453 -64.32355326 11.99647104)
(1948.496333 -0.7519235568 3.265733328)
(1933.285373 -11.61006812 -20.33612368)
(1938.578902 -19.26258111 -15.67380049)
(1961.731901 -35.40110488 -9.411891056)
(1980.67722 -26.15180776 -19.8369392)
(1971.382948 -24.36507595 -12.65380954)
(1970.549359 -18.33756089 20.8137086)
(1961.38671 6.705065451 20.42980526)
(1950.290552 6.796007218 -14.23198678)
(1957.639596 13.76878758 26.27229473)
(1974.801606 -11.67322946 24.87764184)
(1967.233374 -13.13867841 -7.505970609)
(1930.148544 -33.85617435 3.374985097)
(1931.63865 -16.7534351 -10.75255313)
(1914.843321 -5.131310718 -17.58548244)
(1888.794511 -1.051119782 -30.79624859)
(1917.328768 15.20524901 -59.82252807)
(1932.026346 23.00520813 -49.38664118)
(1935.06889 31.12481154 -53.21794094)
(1927.069446 30.10785813 -50.89313811)
(1915.764073 -21.54203044 -61.84843026)
(1931.152802 5.664200036 16.30922133)
(1914.126083 8.825149902 19.03259533)
(1921.426193 0.5689636342 30.04116439)
(1942.097691 -17.22311532 12.96627398)
(1911.142758 6.644042699 4.412766641)
(1925.417077 12.36415534 14.1152179)
(1929.713754 13.11174487 40.78027325)
(1954.294787 -2.759386516 49.92423634)
(1949.215767 14.98917781 36.48161889)
(1929.500088 38.5120037 47.68681622)
(1941.185274 0.3253617861 4.497174356)
(1929.826458 -7.811047148 -3.244261754)
(1927.826333 9.347748753 -18.11115242)
(1923.230175 -1.949061217 -9.431585257)
(1931.837451 17.04479714 -12.08197925)
(1923.553163 20.15962466 -2.512697342)
(1921.928141 25.36612082 21.76504611)
(1936.203228 9.687457692 20.72169399)
(1911.844388 -2.714031114 3.020880533)
(1930.589935 5.350238668 -1.836021979)
(1928.563907 -6.065666035 35.61731397)
(1933.735029 11.19323745 41.52933253)
(1940.754931 29.110363 79.39577715)
(1993.846543 9.416994988 63.43294272)
(1975.597407 15.16868882 28.11392436)
(1934.774928 11.46297379 12.74219288)
(1941.375979 11.47129712 33.94067045)
(1939.315439 38.16161001 22.55556554)
(1930.927823 18.19888539 -11.7332279)
(1968.615274 35.01829139 -7.464154103)
(1954.080255 33.19854809 -6.474793467)
(1956.996634 -18.50420301 5.587163806)
(1957.940248 -24.3019639 -34.58029921)
(1971.761339 -21.69673718 -26.69880232)
(2015.621839 -18.87538788 -6.914690451)
(1996.122059 -28.08422988 -5.143670184)
(1981.754841 -19.86601058 6.568473716)
(1959.211068 7.031449711 34.19919603)
(1955.34975 11.15392683 46.95321138)
(1959.911476 25.80507875 34.18699245)
(1952.61498 -32.65200259 -7.33906395)
(1920.048269 -56.26563811 35.14839427)
(1924.857735 -6.840632536 -10.7380997)
(1935.616037 -7.252181508 -8.660623202)
(1934.139456 -4.313922484 19.61941718)
(1952.353027 12.33577659 37.38598334)
(1937.266828 32.81314791 39.23720293)
(1946.102442 29.55184037 42.82095028)
(1951.774687 5.619681513 13.99749573)
(1954.760618 15.38447256 7.585215002)
(1951.675093 38.66728983 11.2674347)
(1979.127405 40.83608675 29.60204596)
(1981.150836 36.90191045 23.69601694)
(1961.577789 53.56613366 24.10607019)
(1961.315095 74.47137276 41.26287204)
(1976.807053 36.75548902 51.82877625)
(1976.425191 22.85281814 30.84965962)
(1975.097093 2.596616982 -35.0928221)
(1995.432864 -31.49608001 -32.4322399)
(1977.207297 -0.6879939245 -46.52024564)
(1950.087419 3.691252937 7.443119009)
(1971.564745 14.99946954 -28.8148776)
(1975.270259 -1.989231911 -37.22753016)
(1976.694424 12.69216907 -38.81382157)
(1968.231304 31.52219549 -7.343713114)
(1971.771897 -0.2688991717 16.81098353)
(1944.971287 15.78364087 15.6077628)
(1939.069547 37.50932371 -5.071929255)
(1921.853936 27.19100362 -28.41680036)
(1920.661982 28.3936101 19.79054664)
(1904.461412 18.46468901 7.999393256)
(1875.5452 19.51929991 7.628853295)
(1872.955328 54.9065169 -13.43944118)