/*--------------------------------*- C++ -*----------------------------------*\
| =========                 |                                                 |
| \\      /  F ield         | OpenFOAM: The Open Source CFD Toolbox           |
|  \\    /   O peration     | Version:  2.4.0-MNF                             |
|   \\  /    A nd           | Web:      www.OpenFOAM.org                      |
|    \\/     M anipulation  |                                                 |
\*---------------------------------------------------------------------------*/
FoamFile
{
    version     2.0;
    format      ascii;
    class       volScalarField;
    location    "0.001";
    object      Ma_mixture;
}
// * * * * * * * * * * * * * * * * * * * * * * * * * * * * * * * * * * * * * //

dimensions      [0 0 0 0 0 0 0];

internalField   nonuniform List<scalar> 
5120
(
5.485122598
5.681656739
5.633500501
5.522305724
5.411983581
5.590014499
5.576423035
5.506161297
5.630056933
5.580616426
5.495223296
5.572703579
5.4872693
5.436676832
5.433845326
5.454933542
5.453061969
5.476707569
5.533878142
5.577150551
5.499621823
5.488609556
5.429379664
5.34588005
5.42927804
5.493728326
5.429396945
5.37011087
5.625449502
5.680089098
5.569697662
5.495820356
5.479684905
5.70504937
5.793717265
5.686973811
5.579705985
5.533064975
5.349083769
5.470554679
5.493291965
5.492925245
5.560248962
5.536898938
5.426444234
5.417849409
5.382726687
5.405592772
5.392866092
5.424660164
5.398564077
5.423243184
5.542884263
5.594403213
5.503871781
5.499807326
5.564602333
5.409712552
5.395733123
5.42989003
5.81062378
5.63347425
5.461720851
5.345264957
5.407840106
5.609524102
5.498707573
5.62714733
5.608480922
5.52325628
5.518002291
5.543475815
5.45978479
5.561748415
5.493471438
5.738857468
5.632497268
5.626247199
5.617308865
5.713618003
5.450826371
5.547053331
5.679955268
5.807103587
5.656291571
5.443251357
5.492413503
5.557991616
5.52781612
5.554677563
5.551410999
5.570047583
5.607369607
5.566579235
5.52366937
5.488214628
5.479534626
5.366125998
5.374919788
5.371412241
5.490747064
5.522132499
5.540260953
5.468535081
5.563743104
5.766809217
5.64903275
5.678040693
5.721524975
5.767771513
5.724361506
5.692925075
5.771291756
5.773564743
5.642490474
5.513051233
5.537071532
5.605028781
5.540149947
5.426703365
5.563772736
5.696621074
5.465506521
5.377545869
5.461839997
5.586547208
5.739812793
5.704104249
5.738374942
5.684470643
5.669883514
5.688327317
5.643957146
5.699225046
5.610048274
5.517937787
5.588595933
5.346057462
5.420240103
5.47535344
5.687784887
5.730549518
5.68967422
5.690428536
5.590757032
5.618229625
5.572455848
5.752478052
5.696240746
5.551406047
5.563084208
5.578045084
5.523789927
5.586882425
5.533099526
5.553886876
5.512745359
5.719283724
5.623260457
5.716954788
5.692222278
5.760692751
5.882136551
5.841521377
5.561443737
5.515958472
5.402184319
5.329971044
5.369654104
5.486144847
5.435186696
5.380216651
5.469169033
5.467192477
5.41026312
5.504770057
5.475175116
5.587006472
5.547366025
5.608454838
5.507503202
5.610739369
5.700427759
5.769786221
5.687539528
5.751598044
5.681163432
5.620133082
5.706953183
5.670958059
5.638249206
5.704755498
5.534812675
5.628738259
5.730612656
5.730572256
5.583437582
5.642488938
5.719137566
5.761583721
5.651480772
5.601499597
5.594726769
5.736010736
5.825922074
5.718414202
5.741843841
5.710103933
5.642521033
5.486074452
5.484388805
5.650148658
5.71492481
5.604078795
5.420044788
5.356076361
5.594595256
5.480740527
5.534815156
5.527281839
5.528352262
5.577374313
5.638442801
5.699601111
5.643341908
5.71252887
5.687840483
5.629148275
5.585127504
5.742110342
5.815500593
5.754984351
5.737491655
5.698022769
5.520369934
5.518555244
5.497255685
5.61067895
5.607741521
5.544828178
5.771929337
5.655196367
5.564469322
5.57196122
5.576298844
5.528989314
5.531725131
5.458928362
5.562694827
5.558561281
5.702645444
5.599642653
5.589223932
5.650747162
5.713184287
5.756355131
5.781866725
5.751045144
5.734552361
5.772817823
5.513402282
5.595067082
5.747823052
5.711509633
5.717213955
5.664364647
5.627018025
5.569411326
5.516071317
5.600064073
5.63737037
5.784869079
5.719417831
5.681946981
5.695822513
5.685909229
5.638188334
5.626014991
5.748770089
5.562019602
5.348022534
5.354824653
5.536887378
5.682798978
5.495627006
5.661180598
5.774330039
5.796914072
5.649978677
5.567746435
5.728085302
5.707707936
5.733107887
5.654258461
5.608009956
5.659669877
5.578563599
5.500383062
5.471180752
5.515154633
5.601596481
5.468964174
5.510535888
5.45846607
5.552760467
5.580681701
5.643871958
5.547779616
5.455990719
5.592710791
5.591530778
5.775173033
5.708299477
5.647979512
5.590168467
5.603352254
5.561004546
5.553338553
5.597981074
5.553128356
5.615525647
5.564503959
5.571080746
5.573373846
5.597915625
5.394177442
5.438983185
5.636309822
5.723588275
5.743814774
5.690099445
5.503193718
5.611349977
5.477498331
5.493627442
5.514865139
5.58028511
5.671947657
5.599977048
5.591894211
5.647267362
5.55247734
5.524513196
5.660059812
5.621047226
5.665042939
5.632627785
5.57830335
5.499682015
5.45182253
5.584379361
5.611785131
5.578873295
5.674419435
5.623304976
5.586634563
5.51525445
5.523530842
5.499414471
5.544525441
5.656588874
5.613002316
5.713982402
5.661917997
5.592395161
5.700141864
5.631863116
5.766114223
5.654294122
5.673955304
5.735033284
5.735276178
5.743351788
5.71705024
5.646736433
5.635383583
5.589382927
5.622893031
5.661501198
5.716260029
5.670562917
5.672311909
5.748719335
5.74616752
5.630935005
5.604684314
5.518462597
5.511427288
5.679021854
5.735675265
5.854227971
5.897031599
5.780120472
5.790461119
5.766650191
5.726928208
5.883691602
5.811532173
5.834834596
5.720558278
5.839829529
5.831436108
5.698297404
5.563769177
5.618311431
5.593990865
5.601624807
5.583465835
5.500292181
5.606593835
5.700579204
5.874179162
5.642898455
5.581311334
5.601953068
5.738493529
5.540081915
5.738805894
5.772578269
5.768001353
5.522897314
5.52374967
5.626700237
5.667190476
5.637037521
5.734541333
5.780971038
5.783146368
5.515491996
5.374824896
5.409983858
5.481410914
5.597370826
5.662166972
5.717665705
5.649503917
5.629585107
5.724883108
5.82459074
5.769203798
5.565449279
5.532136546
5.606775281
5.761182789
5.76889911
5.620285121
5.57240574
5.621906954
5.674826941
5.640014495
5.716154733
5.559730805
5.356729018
5.388091961
5.514484315
5.552496779
5.425926387
5.54311326
5.608948026
5.606001426
5.768076156
5.571804891
5.547704022
5.478270155
5.559646519
5.547633239
5.57558523
5.496442533
5.462869807
5.573091271
5.439569677
5.439410583
5.620044205
5.591019315
5.452972314
5.463651101
5.504338715
5.502378326
5.714533887
5.812105582
5.521892695
5.700058821
5.515952441
5.4745694
5.558997488
5.681737733
5.434780823
5.587348986
5.548580007
5.552931034
5.729905173
5.737546697
5.522820118
5.636566186
5.647270068
5.609243616
5.723446713
5.690575844
5.536399994
5.557034019
5.567546786
5.551141338
5.434338778
5.5277325
5.558583171
5.541955924
5.637620576
5.481453718
5.395208175
5.525685829
5.466140761
5.440731661
5.513143745
5.452357164
5.622650051
5.808125294
5.777539619
5.701250605
5.567329808
5.480463476
5.525512553
5.481086369
5.6406885
5.45925764
5.42026089
5.518550787
5.54941283
5.572701119
5.497019288
5.533451639
5.427332007
5.445893077
5.235902631
5.441896879
5.504361983
5.596707339
5.44142665
5.48766242
5.513260358
5.519153601
5.578118791
5.66157314
5.717924403
5.84738113
5.75870144
5.673562849
5.543552363
5.705898951
5.597937892
5.518867471
5.467546916
5.469380285
5.480345458
5.590315867
5.668148482
5.616468767
5.629166131
5.55819823
5.655689101
5.593411134
5.854520433
5.772232852
5.656957845
5.599887232
5.623357079
5.612955308
5.655879745
5.778129036
5.624297984
5.45693422
5.497958513
5.587308374
5.504960838
5.565177467
5.683519509
5.855746306
5.716796555
5.646023385
5.758660842
5.877525821
5.587438497
5.627383553
5.657144445
5.659811264
5.674019326
5.51175676
5.559982656
5.59000686
5.727654998
5.820476528
5.57702602
5.46168135
5.607388396
5.515340702
5.502254206
5.518415683
5.369061109
5.484599689
5.530311267
5.462178055
5.362540268
5.382297774
5.316688752
5.380481497
5.497374747
5.527621482
5.442028697
5.404070275
5.387685866
5.4549011
5.49673123
5.589824826
5.517780458
5.544466629
5.78441874
5.670945225
5.701170383
5.540867386
5.504182079
5.427540748
5.444305861
5.464496565
5.39978139
5.488974453
5.514945235
5.571910472
5.605705723
5.758186
5.734004736
5.654255446
5.583630894
5.487710176
5.481844459
5.635281423
5.482616714
5.422263192
5.404315182
5.429090421
5.471943381
5.452057685
5.698805885
5.704641315
5.721230365
5.627556942
5.559812401
5.576825482
5.571709923
5.663727035
5.695180991
5.739798501
5.639358146
5.591652168
5.598144107
5.638408942
5.577258608
5.579777425
5.717193853
5.54183182
5.592683246
5.631953616
5.576184634
5.562625356
5.434323503
5.558739772
5.446887753
5.375526554
5.349095998
5.4363062
5.557355606
5.701175966
5.711603691
5.71987597
5.525252131
5.527641895
5.753236356
5.766675432
5.650630316
5.77119284
5.756183169
5.594470151
5.620780236
5.639754956
5.681688153
5.62941528
5.536034985
5.490665217
5.709884291
5.474648282
5.493319511
5.548234467
5.595237749
5.679232635
5.651323736
5.606638157
5.422777967
5.561413441
5.671408392
5.818062767
5.666795407
5.744172222
5.722014457
5.702034657
5.676410715
5.646742235
5.642979573
5.581939749
5.520836198
5.570451953
5.655570137
5.568841967
5.517388742
5.532194019
5.612736132
5.489179937
5.476275486
5.472499779
5.35983841
5.42090576
5.576101429
5.583451402
5.668930978
5.700693875
5.703372888
5.585398241
5.48305182
5.53736734
5.553516918
5.582623889
5.620617296
5.564865103
5.619501771
5.593566585
5.536238124
5.675151724
5.525924042
5.496544154
5.656204898
5.66422131
5.595456726
5.608871878
5.690452593
5.613615962
5.601325752
5.655106025
5.666666439
5.679585084
5.619593281
5.542209777
5.657887466
5.728199565
5.643239916
5.595037355
5.604331918
5.626275804
5.74835433
5.864414616
5.838799459
5.723130161
5.647569282
5.674459695
5.46014688
5.66071686
5.71842372
5.597144587
5.536969759
5.608066832
5.679640388
5.676787738
5.597929894
5.715090995
5.636199219
5.671395601
5.67056771
5.601868204
5.687555624
5.463778932
5.560221643
5.597080787
5.522573786
5.587929286
5.72576106
5.665139748
5.649226887
5.738470384
5.687472169
5.466628544
5.535809016
5.709567699
5.614925988
5.709088339
5.724956956
5.678184966
5.485776436
5.449904054
5.325051971
5.589542909
5.742572437
5.768736324
5.803248841
5.741909906
5.447176978
5.458324407
5.51472776
5.608427986
5.581461775
5.59856108
5.684407789
5.629034146
5.682909633
5.805175823
5.754757005
5.600088311
5.548643011
5.528376616
5.79111174
5.677054909
5.585803106
5.591154099
5.525503758
5.596248778
5.709773489
5.694191145
5.636590626
5.629428561
5.613422921
5.712335113
5.671902806
5.847262826
5.796917605
5.688685675
5.769903471
5.85546335
5.779542185
5.783251641
5.723941854
5.632261684
5.760086437
5.811400022
5.686739879
5.622984621
5.636794296
5.805481498
5.646109618
5.638120214
5.690792917
5.764971267
5.625720315
5.64571551
5.765528624
5.680277827
5.69773322
5.773957141
5.786580423
5.569304087
5.582745448
5.470139638
5.673388665
5.549891011
5.694366775
5.744659197
5.516252356
5.470621535
5.397417245
5.446615967
5.609326875
5.624209727
5.617310805
5.591245894
5.685678815
5.71165762
5.596526345
5.633650655
5.610266566
5.478301519
5.403151823
5.425230013
5.48299727
5.48859245
5.452039409
5.429436579
5.652879991
5.642435561
5.764608358
5.785549353
5.81089623
5.844296349
5.875825397
5.681184206
5.65057713
5.641858481
5.64869578
5.518560017
5.593319706
5.568821903
5.561854773
5.588772632
5.649628521
5.653644896
5.690430014
5.703205132
5.688473955
5.721572686
5.743176684
5.598440288
5.646628692
5.694456954
5.701788598
5.634470078
5.640079992
5.660054451
5.623223696
5.651217896
5.50110364
5.5530105
5.543911832
5.575037412
5.650885644
5.773446051
5.722923131
5.663992246
5.820927809
5.710751627
5.567196153
5.601705226
5.625821157
5.535580837
5.545689981
5.734657669
5.712024658
5.576848494
5.422075876
5.502806791
5.716919137
5.676000348
5.618388867
5.506230647
5.397297178
5.477584986
5.558917142
5.692362054
5.639203132
5.68282115
5.640488172
5.525449631
5.548700354
5.594698496
5.563265291
5.470734047
5.478092331
5.521022542
5.582364675
5.581133365
5.427090495
5.285049283
5.340512109
5.456480367
5.534663444
5.558557468
5.568535558
5.640262586
5.461425233
5.575837273
5.681211628
5.859589984
5.8578154
5.750266174
5.642568924
5.651277894
5.510259018
5.617767586
5.495195447
5.354862002
5.40281385
5.528652052
5.585514432
5.607470441
5.482653783
5.379284969
5.287275716
5.395869691
5.616489708
5.411302076
5.564904666
5.431783969
5.561718039
5.55546035
5.625255485
5.609516078
5.502441291
5.378743623
5.47605711
5.502932253
5.559176512
5.654529281
5.663354337
5.553921012
5.623415462
5.639609547
5.766812301
5.79201285
5.679537662
5.649726802
5.613276208
5.559333197
5.544878689
5.577551474
5.505124252
5.496930257
5.388268369
5.448454925
5.416577867
5.503049841
5.532283568
5.557343865
5.630153337
5.728029092
5.799994313
5.801803728
5.825964122
5.729636135
5.755189203
5.802426437
5.618887953
5.607008835
5.639428031
5.655663124
5.572312694
5.54105438
5.660306713
5.655815894
5.666522014
5.684741106
5.681327289
5.663884254
5.739776353
5.62446104
5.392061687
5.487037686
5.622729261
5.90752175
5.645697077
5.566055061
5.609620266
5.550794606
5.608870683
5.569608572
5.595229944
5.585310407
5.569471059
5.462764385
5.515372125
5.598836607
5.523598449
5.489286478
5.445423694
5.6268958
5.769058024
5.769263031
5.680389203
5.692071594
5.719704108
5.741804642
5.696547938
5.579541758
5.569813046
5.361325135
5.310307449
5.355681588
5.509484335
5.561626904
5.570857758
5.521185478
5.445307063
5.442829002
5.577506383
5.642888483
5.67980614
5.573553323
5.474608128
5.608124828
5.509004266
5.481282995
5.520125249
5.68463
5.686161311
5.591924144
5.447987579
5.564547845
5.501114729
5.50723647
5.516900701
5.378056333
5.564913614
5.60914385
5.643654116
5.701688015
5.496869826
5.481632562
5.507433707
5.428496939
5.863649091
5.758243615
5.655036576
5.694596662
5.529345738
5.569563175
5.603867681
5.547022961
5.584133263
5.574096933
5.636998199
5.636864129
5.715066464
5.758841843
5.804492587
5.652139212
5.689156289
5.726161026
5.732109353
5.802242466
5.57537542
5.601605109
5.433338578
5.441693291
5.613522997
5.756923904
5.81425157
5.655337913
5.64864196
5.457899735
5.399792598
5.548515824
5.627334289
5.494617283
5.576254274
5.562211358
5.680005693
5.458610184
5.520570827
5.395405575
5.533924618
5.584245612
5.719278606
5.808731821
5.877622846
5.673384578
5.631467151
5.604042913
5.795489227
5.819570054
5.893104001
5.588980445
5.635419319
5.664902746
5.646339645
5.691561556
5.670638493
5.667478306
5.67204529
5.585591933
5.50991128
5.55803011
5.770786951
5.802579303
5.808051492
5.785357407
5.976897906
5.849913289
5.67194719
5.550852773
5.532653111
5.622811599
5.590591373
5.609716838
5.576662452
5.68304828
5.563830615
5.7996167
5.681441913
5.567529235
5.827701043
5.632834256
5.533355123
5.551505876
5.649397019
5.575117392
5.585288828
5.519865213
5.493109299
5.534388113
5.574300375
5.75959172
5.738271776
5.651915329
5.542581577
5.591818055
5.471074964
5.427254648
5.554759694
5.627652952
5.726644212
5.722073654
5.572131428
5.571464347
5.560524864
5.4974038
5.357087495
5.526254791
5.536169872
5.636140655
5.627262049
5.623481192
5.664045289
5.749372683
5.722981044
5.574716716
5.529953633
5.628792039
5.681821653
5.649166149
5.479925651
5.672419217
5.6081175
5.604533682
5.638931592
5.476910948
5.577260706
5.665463115
5.654928057
5.6214975
5.604074499
5.596116466
5.585481511
5.569698714
5.647542764
5.835377186
5.761841935
5.666374618
5.567647922
5.505066739
5.560927763
5.529348457
5.649008309
5.614801589
5.572122905
5.645697808
5.713656072
5.606488793
5.639529489
5.549346856
5.667548845
5.731527588
5.739400501
5.577778401
5.541889467
5.618298782
5.697422632
5.795566259
5.846618493
5.674397381
5.633643228
5.486508716
5.532075847
5.532293846
5.667823988
5.689842153
5.69113134
5.69949565
5.554565686
5.582346066
5.529992924
5.470193683
5.38125622
5.594645688
5.512625278
5.566529036
5.526535818
5.466046966
5.524566595
5.63114242
5.621057863
5.655541754
5.722344257
5.70095265
5.894434162
5.953503954
5.866473155
5.73157278
5.73879684
5.636691063
5.625075142
5.620488132
5.660857823
5.638794584
5.619666214
5.685744689
5.643631605
5.646787383
5.560405779
5.577645306
5.639684244
5.692075256
5.604305913
5.663959885
5.571095755
5.685080905
5.561089224
5.509247616
5.41194263
5.54123442
5.56847979
5.574268858
5.59954804
5.565979739
5.612567532
5.575330499
5.468845233
5.439572489
5.649274105
5.578580026
5.541498773
5.695802919
5.73903807
5.582405649
5.494310449
5.466752012
5.545350315
5.530293237
5.678881536
5.519892981
5.432096423
5.466660376
5.554501673
5.589813611
5.523739074
5.522202384
5.546109761
5.494368062
5.435961292
5.408619124
5.473980817
5.576135622
5.568738913
5.625676074
5.61736657
5.485703721
5.663436169
5.731496572
5.511358648
5.580075254
5.630277642
5.592798888
5.463297461
5.525194435
5.761350515
5.751341054
5.62514029
5.486768707
5.450624014
5.410866211
5.772542206
5.568146729
5.544105682
5.485521214
5.481403897
5.767116347
5.74317943
5.683212757
5.720052634
5.69395339
5.784694815
5.680267293
5.715655376
5.760572538
5.594011348
5.517361066
5.601408881
5.685762724
5.761343522
5.776957661
5.584078853
5.530492623
5.487804162
5.466932254
5.327560254
5.400148023
5.534521814
5.414241532
5.532417038
5.533160223
5.559703167
5.654956442
5.544516098
5.505033017
5.56607339
5.663550088
5.595503776
5.59956109
5.701315433
5.646242575
5.503255983
5.692673693
5.63874446
5.718179769
5.706241775
5.428377061
5.415209522
5.46981456
5.545786573
5.399825857
5.491834687
5.61026806
5.597174664
5.67431645
5.799844539
5.762761181
5.684293374
5.634619803
5.544011782
5.505704002
5.724159754
5.799195882
5.75321049
5.742710424
5.635850232
5.641295747
5.547768485
5.493860136
5.549641301
5.799987036
5.640983552
5.621667633
5.633863158
5.526393586
5.598883658
5.720606148
5.753307232
5.688926463
5.630471089
5.615476469
5.611995214
5.550638713
5.444570503
5.459885219
5.52143859
5.465509344
5.635445561
5.6299011
5.663536037
5.697541094
5.727466151
5.78140641
5.589934028
5.602120884
5.554799696
5.458662314
5.367491463
5.558866438
5.579226206
5.609902725
5.839397016
5.756684414
5.693287917
5.790987468
5.800750236
5.886132284
5.802928404
5.733241004
5.782621893
5.907670039
5.973658129
5.918914021
5.788410261
5.841503422
5.674549015
5.637744575
5.667997847
5.668615348
5.742361875
5.850567168
5.553973975
5.64759297
5.644410177
5.650553398
5.514033435
5.572395662
5.578523983
5.68087977
5.724230016
5.718472623
5.768418121
5.751685026
5.748124628
5.657362392
5.708365407
5.603732535
5.434708396
5.381298767
5.471893728
5.562449568
5.527579212
5.53379814
5.743573732
5.753789178
5.72386599
5.637264238
5.712576232
5.735840406
5.722525563
5.690165863
5.660290249
5.57819578
5.556856254
5.612553605
5.586619869
5.605553878
5.809042568
5.581329259
5.717259146
5.545608292
5.735720045
5.69671523
5.662985955
5.505112081
5.510385389
5.652419254
5.682474659
5.684734749
5.706039931
5.743885092
5.730405375
5.871320183
5.787505095
5.701352963
5.809379562
5.778305055
5.57870547
5.622483347
5.687709605
5.836230354
5.527804988
5.526532541
5.490488827
5.58190855
5.592221242
5.626229919
5.582587007
5.579654382
5.655721152
5.590966131
5.792750294
5.711014324
5.789793588
5.72651765
5.701363848
5.69711952
5.740835003
5.622465152
5.56462779
5.499162334
5.754434468
5.71463079
5.69104323
5.684370818
5.706514602
5.682123022
5.634924848
5.694224063
5.701788553
5.806509247
5.618207118
5.561023958
5.611760617
5.791805333
5.790110678
5.611331086
5.587751446
5.822601566
5.712220721
5.674503593
5.580303648
5.729651884
5.660024672
5.526706583
5.605376289
5.513585926
5.544629479
5.493994679
5.679346413
5.605259195
5.548823048
5.567588015
5.569090508
5.572791639
5.431618652
5.501496688
5.544700448
5.628290542
5.705536247
5.609338024
5.695439312
5.467709878
5.413054942
5.445086488
5.523097734
5.578861095
5.489829347
5.639286645
5.701946166
5.710413083
5.711975972
5.682534781
5.864831376
5.855911617
5.818110558
5.808438327
5.698345078
5.572803506
5.596631341
5.664524101
5.545170163
5.598459664
5.669546826
5.478884093
5.355063198
5.382399194
5.665236711
5.549230352
5.521369733
5.391300869
5.529665593
5.640426195
5.757887586
5.722371898
5.6449868
5.65337299
5.562589141
5.718745501
5.640517761
5.561969645
5.517877887
5.605881361
5.56086501
5.628657465
5.640840009
5.626602737
5.391373424
5.398223328
5.47854765
5.720039028
5.612245183
5.53416742
5.547783848
5.622225763
5.537960942
5.635821705
5.551539591
5.584284829
5.47403122
5.441569491
5.597827313
5.45320624
5.456625242
5.684186513
5.656329867
5.566524368
5.543237544
5.539250715
5.694206026
5.635140455
5.492285163
5.627790511
5.640028485
5.580974093
5.51530135
5.422570132
5.539105676
5.610126896
5.608848719
5.580394785
5.722401235
5.645054692
5.459452919
5.420667199
5.456427194
5.435836201
5.484611052
5.712680574
5.773114997
5.564166585
5.567828812
5.606072902
5.455776556
5.451396322
5.574092923
5.575234966
5.544279819
5.65794065
5.805148354
5.754708192
5.542217095
5.598011107
5.704811517
5.69117016
5.743348171
5.870068881
5.66362753
5.493584158
5.433220804
5.444049665
5.406778119
5.473784315
5.675174876
5.672544325
5.457377634
5.380469385
5.437272807
5.537654089
5.531794896
5.558455998
5.848964474
5.794432546
5.791070468
5.654333576
5.563780483
5.540744491
5.617399016
5.635746682
5.656866436
5.562783833
5.585322628
5.532168974
5.473688439
5.479801992
5.492787639
5.681861712
5.546140921
5.499539591
5.565805637
5.654746924
5.634502252
5.59359815
5.759455717
5.78360462
5.947924296
6.028710215
5.952922448
5.938631529
5.728175425
5.608565896
5.629879391
5.551441905
5.638158096
5.528540109
5.688308248
5.601288292
5.728622071
5.689151784
5.876481502
5.702421888
5.616902162
5.671677166
5.698130796
5.707858546
5.677870296
5.678583472
5.622711171
5.69016732
5.632679996
5.698705031
5.772049812
5.798296114
5.78178799
5.730437372
5.61525065
5.728893264
5.681198891
5.602948614
5.471058273
5.557128978
5.608661153
5.482203703
5.609559724
5.59534298
5.736582906
5.699570878
5.698128365
5.777907892
5.804723674
5.752001978
5.637049754
5.669447148
5.612066526
5.725570905
5.825666908
5.826688762
5.796294504
5.766898183
5.789427568
5.571370487
5.753475843
5.642351115
5.628528014
5.723624068
5.674263368
5.685003377
5.731663524
5.754849159
5.821530679
5.858981982
5.777526771
5.761927155
5.865105424
5.774727392
5.766548537
5.652142953
5.731006239
5.736109709
5.718285888
5.745001157
5.610859001
5.613776833
5.551599557
5.51149384
5.588057072
5.662683643
5.717522836
5.667455451
5.647823567
5.593819941
5.616266463
5.638310404
5.669973838
5.64994428
5.539047961
5.674542634
5.603891068
5.686009318
5.526552466
5.563805264
5.605409339
5.714303117
5.777734537
5.841859746
5.720023955
5.62014162
5.707734991
5.879692854
5.948830693
5.930919412
5.65882684
5.655296251
5.715525692
5.79862813
5.738925955
5.572956682
5.659128098
5.734690164
5.914907385
5.802407023
5.653019559
5.593944281
5.67399199
5.601394472
5.782390818
5.912908055
5.699569542
5.743823712
5.715199564
5.615128486
5.650601454
5.755924226
5.71541805
5.676752214
5.756614164
5.792011184
5.681326429
5.648723
5.714840322
5.620534873
5.367408847
5.245623269
5.463619527
5.53045075
5.515919854
5.463659136
5.563361835
5.748525978
5.696297321
5.653763296
5.715906215
5.672417664
5.63192209
5.532400049
5.653951951
5.689568604
5.640040169
5.514930411
5.443490674
5.531574273
5.714926518
5.632301836
5.664013761
5.649685426
5.606102469
5.822033588
5.821318704
5.732994941
5.773410056
5.762214692
5.783371435
5.643722345
5.704099211
5.642858283
5.65023015
5.609752663
5.668448109
5.616155655
5.601638934
5.671329548
5.497653039
5.620749943
5.629234568
5.465090738
5.631646782
5.666411544
5.680642669
5.669719233
5.668504232
5.519440177
5.612023303
5.629536048
5.560924484
5.537090879
5.546594747
5.435508255
5.512704875
5.570022456
5.469793855
5.412560139
5.588333099
5.498249669
5.521139313
5.638603131
5.519462727
5.56349849
5.384618391
5.432130049
5.492937914
5.621064187
5.722529575
5.669321951
5.55364837
5.510873523
5.561145677
5.53743321
5.56972695
5.532431186
5.660193353
5.805908061
5.573196015
5.500741912
5.510825647
5.613313042
5.599964883
5.593593191
5.566920058
5.50542876
5.601221391
5.530459137
5.574518011
5.57888733
5.619245035
5.554281323
5.552512521
5.454038403
5.45172656
5.532119272
5.426624082
5.559188241
5.376145639
5.399520362
5.485259037
5.499732472
5.501943093
5.584061404
5.748687513
5.68219551
5.530898886
5.646484719
5.678216733
5.746815762
5.576486048
5.48788049
5.37938706
5.55444162
5.508361539
5.446719819
5.52188172
5.419833729
5.542797963
5.603344911
5.783027757
5.734654358
5.768346276
5.710686464
5.549786654
5.574361041
5.673410526
5.723729353
5.686247077
5.662484094
5.647060313
5.698782441
5.578125462
5.570360617
5.551263742
5.515550881
5.501196151
5.61410982
5.747917193
5.776699955
5.620882299
5.642533344
5.760189516
5.795249526
5.965283287
5.823004989
5.626203438
5.608337395
5.676376669
5.621999357
5.592916555
5.662271566
5.692060701
5.693229519
5.690682558
5.693418146
5.642639214
5.607708356
5.796032573
5.760712106
5.849657139
5.85728993
5.726332485
5.686517926
5.576845069
5.585204862
5.586180448
5.634904601
5.633264505
5.621873089
5.614637993
5.631044433
5.822950459
5.820483785
5.734791041
5.62846648
5.745948781
5.76556208
5.806005051
5.825416559
5.742138209
5.979800454
5.991917158
5.834529542
5.809814637
5.673865227
5.64693576
5.714346044
5.72967588
5.810623001
5.815066187
5.823173854
5.66434556
5.785187149
5.83216135
5.755086577
5.813047214
5.721485504
5.792012077
5.874641978
5.819507722
5.72570999
5.598494671
5.686651356
5.730440581
5.805364699
5.82487492
5.811810221
5.817340805
5.764263874
5.818003561
5.765219703
5.68156305
5.679809451
5.800600055
5.848259566
5.94502073
5.8187294
5.53276116
5.550774489
5.540670355
5.549054199
5.60876779
5.658953708
5.660980702
5.652381323
5.683231853
5.730723025
5.659883447
5.66006711
5.647280128
5.630302714
5.73494948
5.815056186
5.720371068
5.676604508
5.623520368
5.680214753
5.680280108
5.573630113
5.618680352
5.482969179
5.445667051
5.480030578
5.429990911
5.515535349
5.5622017
5.602187478
5.62086758
5.607730477
5.538854167
5.630239725
5.735599567
5.59625276
5.513180961
5.569406496
5.578960756
5.635355174
5.822049041
5.672223292
5.580510771
5.676520485
5.668861512
5.628484116
5.652162034
5.510461977
5.407169333
5.563877052
5.775094076
5.705883474
5.619016355
5.779897877
5.811484413
5.789093655
5.735282449
5.793574366
5.686105996
5.775563831
5.588770231
5.749729067
5.746347038
5.668546523
5.647582485
5.645226673
5.664436566
5.595694158
5.678769394
5.669468576
5.884713919
5.809214941
5.809466704
5.795358044
5.824468168
5.742644688
5.614084224
5.602724283
5.744367981
5.638422145
5.469364077
5.571034331
5.699772998
5.697617414
5.615934881
5.639602121
5.73686075
5.806288664
5.746391592
5.586631479
5.526995883
5.705125805
5.650698057
5.669293757
5.561803462
5.581309677
5.792315932
5.624850155
5.607474505
5.470566367
5.656900276
5.531355067
5.500433527
5.563315307
5.582266732
5.675808235
5.602797647
5.662267307
5.623631868
5.674236803
5.6760011
5.634646298
5.59507087
5.658507432
5.606199579
5.66482946
5.71628327
5.765282611
5.674974903
5.659574747
5.488659066
5.632807607
5.666523476
5.702714457
5.6206753
5.597310911
5.54726355
5.472789139
5.564348743
5.708127302
5.672663732
5.632092429
5.640785938
5.461854266
5.42071208
5.441109614
5.519163037
5.49601939
5.414024061
5.454043059
5.511805911
5.622414825
5.628397328
5.674523037
5.652789662
5.537561015
5.485367815
5.587403298
5.529083556
5.547545011
5.608288091
5.589144782
5.490891536
5.446985457
5.541958019
5.60599987
5.489044102
5.528281438
5.471501056
5.465859547
5.688972319
5.69141311
5.704304205
5.539617168
5.714122535
5.634399039
5.728987922
5.573670984
5.547323033
5.456276628
5.407837794
5.402770877
5.545491216
5.664381463
5.713248483
5.788189344
5.900498597
5.972545375
5.928681218
5.727321965
5.637847937
5.633855035
5.535434024
5.517572392
5.360696403
5.291821992
5.408838376
5.43762961
5.426615024
5.515837593
5.631831104
5.450691843
5.492661564
5.549231662
5.642819944
5.634028112
5.752403772
5.779981556
5.737874419
5.571268735
5.382341614
5.376863997
5.445614901
5.444868502
5.530405249
5.597909859
5.519234915
5.529841605
5.698474887
5.461331894
5.578777546
5.767007134
5.649069777
5.531382932
5.571665921
5.51074821
5.447227397
5.466076953
5.507244518
5.369534351
5.638325793
5.754456225
5.580171036
5.540038262
5.622330404
5.685880158
5.789383994
5.722328242
5.63094526
5.575141626
5.542280693
5.663673958
5.650167494
5.591226178
5.571244103
5.491276655
5.558225497
5.551001566
5.503350814
5.481993029
5.608658123
5.588811395
5.533051934
5.585128148
5.605299069
5.644609683
5.617401653
5.658032573
5.780954414
5.935231785
5.700028758
5.627448622
5.660780314
5.581966272
5.663628902
5.653601985
5.600187911
5.647538047
5.612322001
5.635903265
5.630818063
5.594294337
5.704147277
5.792803722
5.719189371
5.660410624
5.663937076
5.598485417
5.814836005
5.858302293
5.843696695
5.692856151
5.552555773
5.52240568
5.554353518
5.664996639
5.656684447
5.722849129
5.570982821
5.602730683
5.581527157
5.694150263
5.729953406
5.705425675
5.675403929
5.83332464
5.771581707
5.787994095
5.75209206
5.612706769
5.779777345
5.658051142
5.649452214
5.580839528
5.474565688
5.567323983
5.778308374
5.73780584
5.740045302
5.755178375
5.637090123
5.685648698
5.744056379
5.652691977
5.584818724
5.690675338
5.778657654
5.893854541
5.827234975
5.807980761
5.759691873
5.680004034
5.67500613
5.692774563
5.809704062
5.771456845
5.677027557
5.706933142
5.645804151
5.662457512
5.450034739
5.471409099
5.379693959
5.48609547
5.453761864
5.517863894
5.568535271
5.622049124
5.576375633
5.592937221
5.509418503
5.498219278
5.674514753
5.56322137
5.501996928
5.536338753
5.530334546
5.530050612
5.48053226
5.528764257
5.451975409
5.542720369
5.552070532
5.57809647
5.609485519
5.551161162
5.606596509
5.687824621
5.553169082