/*--------------------------------*- C++ -*----------------------------------*\
| =========                 |                                                 |
| \\      /  F ield         | OpenFOAM: The Open Source CFD Toolbox           |
|  \\    /   O peration     | Version:  2.4.0-MNF                             |
|   \\  /    A nd           | Web:      www.OpenFOAM.org                      |
|    \\/     M anipulation  |                                                 |
\*---------------------------------------------------------------------------*/
FoamFile
{
    version     2.0;
    format      ascii;
    class       volScalarField;
    location    "0.001";
    object      Ma_N2;
}
// * * * * * * * * * * * * * * * * * * * * * * * * * * * * * * * * * * * * * //

dimensions      [0 0 0 0 0 0 0];

internalField   nonuniform List<scalar> 
5120
(
5.30418243
5.574365465
5.677746671
5.512438476
5.33319887
5.469927086
5.442208366
5.433161129
5.477618654
5.484085632
5.437412415
5.527295026
5.441164647
5.416296679
5.457839924
5.399018667
5.393071669
5.399970329
5.42485232
5.456118757
5.450417342
5.372497991
5.321126937
5.207866314
5.281994937
5.435493251
5.330262228
5.225389716
5.47365459
5.564277789
5.460619749
5.387862522
5.428020058
5.578746673
5.711341304
5.548252043
5.368613095
5.347590438
5.2727928
5.327606558
5.497044462
5.475821622
5.455680629
5.420888569
5.317850681
5.298196739
5.319147265
5.294433767
5.268495436
5.270029529
5.227210236
5.244078709
5.300643287
5.338506124
5.328387789
5.347847057
5.483885945
5.288285475
5.281872471
5.395316992
5.712529685
5.669562282
5.420124455
5.30873038
5.348597865
5.532153847
5.381978252
5.545890004
5.560018921
5.467726483
5.478271254
5.549283109
5.558454505
5.609911824
5.492198614
5.687719771
5.490367456
5.496637459
5.524394634
5.594742263
5.362816069
5.461399575
5.531724773
5.648025864
5.475830544
5.294149602
5.478202151
5.540126247
5.476765695
5.502802534
5.489098598
5.505342179
5.493181215
5.511813852
5.452633549
5.418021163
5.336321121
5.229821274
5.28212537
5.31138961
5.508322718
5.478254725
5.498358568
5.412336061
5.499160669
5.706738423
5.587926634
5.637592396
5.654648425
5.733948104
5.690160474
5.636698067
5.645221195
5.652009457
5.60129116
5.475069842
5.483695341
5.530984909
5.494037145
5.40013919
5.45546651
5.545234493
5.350863124
5.270865579
5.350351455
5.410245972
5.659958922
5.537095325
5.627829674
5.578965826
5.573570268
5.641434291
5.611799579
5.565395209
5.425340321
5.352261842
5.438527601
5.227195207
5.299346663
5.378123527
5.528891118
5.651116304
5.6361074
5.64543243
5.466142654
5.478228531
5.441113507
5.650131493
5.578684726
5.410373898
5.449145306
5.583954009
5.53115307
5.549361619
5.4566546
5.458045785
5.410151232
5.575045645
5.456752165
5.578440125
5.612058287
5.706061936
5.715500292
5.710297317
5.461371305
5.36603758
5.262407628
5.212801742
5.358089115
5.467930191
5.390553601
5.312824363
5.36675909
5.386072537
5.296984739
5.439631922
5.416766213
5.513315143
5.453608836
5.535185513
5.449730809
5.506957523
5.631257673
5.801417705
5.682868958
5.69381725
5.63115221
5.60150767
5.663170023
5.618866953
5.563628608
5.597598903
5.352016134
5.500886248
5.618196574
5.619797224
5.458853621
5.609045225
5.636425138
5.726011572
5.605862752
5.582344708
5.549752326
5.582882234
5.705562546
5.68065408
5.662272776
5.627914359
5.693992546
5.483452496
5.411241504
5.553630552
5.583372786
5.57259692
5.380576949
5.252316591
5.519105648
5.327272176
5.416227265
5.46422103
5.411221636
5.510223663
5.590165093
5.756720355
5.568547578
5.650453517
5.702557048
5.588446904
5.465378146
5.58823346
5.651308272
5.626208701
5.667716186
5.678542709
5.458819217
5.517024058
5.505105717
5.565898047
5.512523306
5.446182881
5.73691686
5.705959174
5.685969229
5.625819298
5.527562129
5.436554929
5.50457987
5.441471394
5.561695464
5.548611868
5.638864186
5.500549207
5.434981204
5.533423197
5.720996803
5.789380439
5.839297687
5.86320952
5.771678889
5.761709224
5.556739999
5.722412333
5.730252267
5.611170463
5.612741905
5.565549516
5.638165371
5.543936977
5.35176658
5.38932851
5.525711449
5.629643237
5.532072726
5.543412186
5.579351542
5.617313203
5.640068128
5.584917524
5.764883202
5.556300815
5.391514475
5.295753233
5.422902958
5.603362075
5.329077633
5.476802876
5.633652823
5.778767977
5.644197799
5.391389835
5.54775394
5.581488449
5.634686814
5.620516278
5.587716662
5.623538912
5.518478144
5.395682453
5.396395156
5.485220571
5.531022558
5.451931755
5.486459288
5.436250018
5.494399484
5.454169934
5.528996196
5.39761101
5.347826753
5.57180745
5.495900315
5.633738109
5.586375419
5.522116453
5.418698877
5.518405018
5.520052447
5.549639127
5.566619681
5.440534169
5.401420642
5.419017497
5.435473676
5.45240415
5.467737263
5.258211817
5.276428224
5.476252548
5.575925702
5.583977084
5.540800463
5.446961156
5.632560065
5.467553844
5.409919482
5.46859775
5.64303129
5.680285431
5.498186541
5.44360813
5.559874376
5.435069042
5.40371432
5.571379615
5.470802139
5.544075147
5.496048599
5.463715492
5.415813
5.319991825
5.426985706
5.514205227
5.533041369
5.677611474
5.58965372
5.520259939
5.417760177
5.473604327
5.430905456
5.535619502
5.563799531
5.466419162
5.658286952
5.532978574
5.42990694
5.505231095
5.428249577
5.623307645
5.530016611
5.55019785
5.698495306
5.680859829
5.691033494
5.67349857
5.604797727
5.63786919
5.55078395
5.613115729
5.613740332
5.635367524
5.641387629
5.666581173
5.743620198
5.562345991
5.52589115
5.502385885
5.377049465
5.363158703
5.536837443
5.672906834
5.728153165
5.759906935
5.719005813
5.767435366
5.719221076
5.601578035
5.73838208
5.691724862
5.752763965
5.670386187
5.734659589
5.757807837
5.599844103
5.434058411
5.452385801
5.483517106
5.425679773
5.469244076
5.363196312
5.455900993
5.574039585
5.752738275
5.630269127
5.523722496
5.532737296
5.66194131
5.456959494
5.656114368
5.647251381
5.625829828
5.387097841
5.418546506
5.52430111
5.590264442
5.605289857
5.680859751
5.762566386
5.709979954
5.427995071
5.353165489
5.388824544
5.40979083
5.54957226
5.612384863
5.662164238
5.643693613
5.646548851
5.700565993
5.734747357
5.6649421
5.469903554
5.43699443
5.480038688
5.640932635
5.709266465
5.644837601
5.529876091
5.547602989
5.587226341
5.577136202
5.664910459
5.543369621
5.399834482
5.391487546
5.51927739
5.521201379
5.34612288
5.441546188
5.505511329
5.491656048
5.714556974
5.465511601
5.431268736
5.336507692
5.444511589
5.431381559
5.467558475
5.436784479
5.398390452
5.523050596
5.395634354
5.345530232
5.514092847
5.564592268
5.388437819
5.388914634
5.403650222
5.409997182
5.603842065
5.736265746
5.470883452
5.614601354
5.417064526
5.409456259
5.498462429
5.605512836
5.345815513
5.48104149
5.518646581
5.519488852
5.720858117
5.784620507
5.487782939
5.555664105
5.538307671
5.508617167
5.667477622
5.665849971
5.496686492
5.543801177
5.505321367
5.517830378
5.383812655
5.451252179
5.462567113
5.457418826
5.518618785
5.349894417
5.23748046
5.434680521
5.479437483
5.420580307
5.468991097
5.467207893
5.621050848
5.785912746
5.718863536
5.628864536
5.509324536
5.405819294
5.460479428
5.443280219
5.529775632
5.414349914
5.313392052
5.405895632
5.511534345
5.466690421
5.389114142
5.401253003
5.320320435
5.32607566
5.179833268
5.377642975
5.381346739
5.52951115
5.399608608
5.400553512
5.422474398
5.431293865
5.594184278
5.57160288
5.715359168
5.781976173
5.857137693
5.692693297
5.42157802
5.581607133
5.480872963
5.386916122
5.357319579
5.407349033
5.481939045
5.536133772
5.594199012
5.522609219
5.614924483
5.59704831
5.61444522
5.529842863
5.778239133
5.716503098
5.573710571
5.547267337
5.618872797
5.626194297
5.614947901
5.717138107
5.588379536
5.421836258
5.348246868
5.476257304
5.42954449
5.521229063
5.606494424
5.738037361
5.709494064
5.546914916
5.616732434
5.701194494
5.432018717
5.411545117
5.470672097
5.520098166
5.555660038
5.426288643
5.464665916
5.534419868
5.678811959
5.759284983
5.54902119
5.417083737
5.540887652
5.438703451
5.43714022
5.41119902
5.276172629
5.517965787
5.53143076
5.350338505
5.330599083
5.423986652
5.305792086
5.328858816
5.516646239
5.508220774
5.448711184
5.305396837
5.251769583
5.367565538
5.428700538
5.567776238
5.508578247
5.488365079
5.670441003
5.594233616
5.636235346
5.474285863
5.469377772
5.400354065
5.414475556
5.405621219
5.377571103
5.437404274
5.458514338
5.478862436
5.438948527
5.547696836
5.525730493
5.545055732
5.440862604
5.363991546
5.314477281
5.470507016
5.398697183
5.327952597
5.271455144
5.337630015
5.468685985
5.443454523
5.696541648
5.678153887
5.681318177
5.545055752
5.473801428
5.486570829
5.456923797
5.574965615
5.565621297
5.552712229
5.457685459
5.473074419
5.534609559
5.644159973
5.594737487
5.586071935
5.725293075
5.651103504
5.621330368
5.704942055
5.468394215
5.418584073
5.266266672
5.424716138
5.386748261
5.310321332
5.316033092
5.340207612
5.450988178
5.611874327
5.618938276
5.62760207
5.369996542
5.377431706
5.697121044
5.728843478
5.607502869
5.637439982
5.591095366
5.460501294
5.517216345
5.541676331
5.540312958
5.44772113
5.409776962
5.316550858
5.604899377
5.389251356
5.398242447
5.524977722
5.666869261
5.631808127
5.580688438
5.557897881
5.341955751
5.403715861
5.596575344
5.782461014
5.619173446
5.690499955
5.652848646
5.632170246
5.564096659
5.527871749
5.519246812
5.472778453
5.346642443
5.368767087
5.52416986
5.38123686
5.362759348
5.536289075
5.567206533
5.402264743
5.34907362
5.416544632
5.268425361
5.376294955
5.545916283
5.577562601
5.601853513
5.641978856
5.693961719
5.614224055
5.499358589
5.445501972
5.456195377
5.437339364
5.453360198
5.423646158
5.485782092
5.361257079
5.352485723
5.566313506
5.47648048
5.514672606
5.662714242
5.590265343
5.496124999
5.500537687
5.605651547
5.506614971
5.570201461
5.546612557
5.564143393
5.609380085
5.48610795
5.410834087
5.581565273
5.655893614
5.605309047
5.544228825
5.535427462
5.586231064
5.740071161
5.879142845
5.781215455
5.60436448
5.523097427
5.56100477
5.335244315
5.569502132
5.674695214
5.522263198
5.425603633
5.454892561
5.610936501
5.680678106
5.557018358
5.636041442
5.553447597
5.626770165
5.619390967
5.51127802
5.629241264
5.437833015
5.475271258
5.467552431
5.453649211
5.46864333
5.570767083
5.561970544
5.538600738
5.696202686
5.601136913
5.336376346
5.428328224
5.589412742
5.516755343
5.658477901
5.643059849
5.570381265
5.31768593
5.263613116
5.222648086
5.472619583
5.663963905
5.68833403
5.699666353
5.679072021
5.457160805
5.423291099
5.442364863
5.50412132
5.472259668
5.503118414
5.643688832
5.591400851
5.599753234
5.686028125
5.618236849
5.52325621
5.517116017
5.573678172
5.809767002
5.635500431
5.487038254
5.484673382
5.456304007
5.552064247
5.627333672
5.584017585
5.547874311
5.546396205
5.515098023
5.636629054
5.625688789
5.753052984
5.798164826
5.680414185
5.730973672
5.864929299
5.69568104
5.761474606
5.694939633
5.624743836
5.806282107
5.818847629
5.697678952
5.541875215
5.582896623
5.719630178
5.529092963
5.496412085
5.53092791
5.627754368
5.528350662
5.521794517
5.662933535
5.600446693
5.598978205
5.750914469
5.715164399
5.458144535
5.507543355
5.479426699
5.582864896
5.52942245
5.682028221
5.75514882
5.390232527
5.391858768
5.304638096
5.364866988
5.603975655
5.601746421
5.558477725
5.414836902
5.520529671
5.553881905
5.477920892
5.504665187
5.537673219
5.415612593
5.318381945
5.34369786
5.294951396
5.367067583
5.338728585
5.455388636
5.607074598
5.607548757
5.725838882
5.716848379
5.753247743
5.691090163
5.785238454
5.550119054
5.532161671
5.522821269
5.509300443
5.40162745
5.474516559
5.521403072
5.474409636
5.490066202
5.580120209
5.570559258
5.624544028
5.61487666
5.57631495
5.554699114
5.555787837
5.539918197
5.597067523
5.65487015
5.653545395
5.58769693
5.601258694
5.601814412
5.622248138
5.579517047
5.414513577
5.462667895
5.456088605
5.51235112
5.522878861
5.635722586
5.581064218
5.561991739
5.720942617
5.597313192
5.469835746
5.533198314
5.537423072
5.514253241
5.540375382
5.693803642
5.695980639
5.443663173
5.354815087
5.382333081
5.64302726
5.607203336
5.535844491
5.382146051
5.252183726
5.335423205
5.390831104
5.573950593
5.625606053
5.775724078
5.583597921
5.44594534
5.456763773
5.574011896
5.57033802
5.508050849
5.455386999
5.427749444
5.496904809
5.480565734
5.304261791
5.194420746
5.250434049
5.362481577
5.414444441
5.522387443
5.516054857
5.590296243
5.299833779
5.435239894
5.606227365
5.824099262
5.791321841
5.690367092
5.522862971
5.567182816
5.439234258
5.545924235
5.438061898
5.262158539
5.281132942
5.440278858
5.516227771
5.572718675
5.423105035
5.196269241
5.109014317
5.207884653
5.584555871
5.323738708
5.504796782
5.359961379
5.430074069
5.387278711
5.471557941
5.543485732
5.419683972
5.322556259
5.442015487
5.410530158
5.48624044
5.595040261
5.539304686
5.352769966
5.401569781
5.504251947
5.700209126
5.728230546
5.443758571
5.473017889
5.367685256
5.361274313
5.417429812
5.460061655
5.400312584
5.358778464
5.268284429
5.342670174
5.31535762
5.346263987
5.342036827
5.324736887
5.433545462
5.53828341
5.60423878
5.594952166
5.623054778
5.505449805
5.651841988
5.753228873
5.578309052
5.529210049
5.521794417
5.567622598
5.465081122
5.45724159
5.561931373
5.610262322
5.61246508
5.669667628
5.669407745
5.640745845
5.662634843
5.556300768
5.279855944
5.362560584
5.524765539
5.79094423
5.588017836
5.44834848
5.449671932
5.490161701
5.527880441
5.465405274
5.528040697
5.611250825
5.518842014
5.343798218
5.353623618
5.53423557
5.467437654
5.414660242
5.369581798
5.464489243
5.701079718
5.700599691
5.604746059
5.636450488
5.626369088
5.690366619
5.639164519
5.483174156
5.503323479
5.265964885
5.196781264
5.219390214
5.342899263
5.429360612
5.399202585
5.356480148
5.393407079
5.322237088
5.511923214
5.580633236
5.636966303
5.499248913
5.422366365
5.577580325
5.434977304
5.409146717
5.423158927
5.535873745
5.590497238
5.496379147
5.294857211
5.416505107
5.380827678
5.421349223
5.469012937
5.345330021
5.480861771
5.555149481
5.607323612
5.687033291
5.431644109
5.375311813
5.373384282
5.328480806
5.744407408
5.588438484
5.45403989
5.547758927
5.412833113
5.409671586
5.411558806
5.372566874
5.442911872
5.465372788
5.591386587
5.517951139
5.640327951
5.69570774
5.725075543
5.556716968
5.624425053
5.682420424
5.65578422
5.737164284
5.411277935
5.460114852
5.351276888
5.292470299
5.410612884
5.668193442
5.776592117
5.606367788
5.576126929
5.374349544
5.286868674
5.466890667
5.568189552
5.398579541
5.499691057
5.449063672
5.576770662
5.343967009
5.37562229
5.208815677
5.399695251
5.442031204
5.582921145
5.713361475
5.826045473
5.585589768
5.616194419
5.63776599
5.77535007
5.816082584
5.831374786
5.486334381
5.62601468
5.573986307
5.506710608
5.567972825
5.475245411
5.556950131
5.5615701
5.471113423
5.388384128
5.468694022
5.663560311
5.689577754
5.67260628
5.687097632
5.830135487
5.697249491
5.523380523
5.36139314
5.296703411
5.47381486
5.459031474
5.519515966
5.529258539
5.54158618
5.416144861
5.623983826
5.530211858
5.427531783
5.764639763
5.584544184
5.479952655
5.523371192
5.58525261
5.530158005
5.583404153
5.544931108
5.474312207
5.485010961
5.568474619
5.692014973
5.65718503
5.565681964
5.486020417
5.54733041
5.341622994
5.255587848
5.396515532
5.485520694
5.612075702
5.650499451
5.543558128
5.548314586
5.532918417
5.474426186
5.260125649
5.435830938
5.494811708
5.538739858
5.556588302
5.523826734
5.526234393
5.560745699
5.605887526
5.501101069
5.533093351
5.614219588
5.647672496
5.618653136
5.312461859
5.533847212
5.518696691
5.419561173
5.474426394
5.396949035
5.533864487
5.60635312
5.546964956
5.556341992
5.576456004
5.597821782
5.580367113
5.52891028
5.561006427
5.682243148
5.697746091
5.568407088
5.493070772
5.349467129
5.513040691
5.543794253
5.636432623
5.655230881
5.658534111
5.647571195
5.780180126
5.594328563
5.596736564
5.529177654
5.5992417
5.65413285
5.644766484
5.480459776
5.466855282
5.587357061
5.608647446
5.729412337
5.805307816
5.647360877
5.559640221
5.342061558
5.422957594
5.476678284
5.635613046
5.701620378
5.651767357
5.671233197
5.515325679
5.544300903
5.474090342
5.396445068
5.282269264
5.546379145
5.463057034
5.485144369
5.441207752
5.419926526
5.470019183
5.548443406
5.505199231
5.540899779
5.590680137
5.567363343
5.780897305
5.861717178
5.789894439
5.654794985
5.699862014
5.618956638
5.628189483
5.613935967
5.735842965
5.600086796
5.610051782
5.61792185
5.529663943
5.484563801
5.380119048
5.436214631
5.481530076
5.595745954
5.459911587
5.468990062
5.430361342
5.532426834
5.454756165
5.429340732
5.323194465
5.428577039
5.438182981
5.486133827
5.495005587
5.527306339
5.612405894
5.546119448
5.370219432
5.306353974
5.508991002
5.529623845
5.355390156
5.541465854
5.641004188
5.476664461
5.404999134
5.39256083
5.425297667
5.421966849
5.563790432
5.505262625
5.384176436
5.386337294
5.461023862
5.512481522
5.410742018
5.469072713
5.491612735
5.43389927
5.30790961
5.302762114
5.490224081
5.539680043
5.519946588
5.517840033
5.520150156
5.400302604
5.614463865
5.631971827
5.483782421
5.533676152
5.585017298
5.540982492
5.381651782
5.509690417
5.702227655
5.770555511
5.547510967
5.393677933
5.418622516
5.379991815
5.727206851
5.504003825
5.499748253
5.437771811
5.395667634
5.748875659
5.746011065
5.587927926
5.650480155
5.638995981
5.729724838
5.569777049
5.577928194
5.631119161
5.482304207
5.412213477
5.476005963
5.668677567
5.714695007
5.756602254
5.49735603
5.4411384
5.473317668
5.482004066
5.311596883
5.411656201
5.471149285
5.289844181
5.38103637
5.392317143
5.426212412
5.56423725
5.389617433
5.414493001
5.438273494
5.521794167
5.482175119
5.497416794
5.631626806
5.565327217
5.515392674
5.822224468
5.781407089
5.749566381
5.614903247
5.29056335
5.33412668
5.323286604
5.373887229
5.176845589
5.297646611
5.447787627
5.486810368
5.512181119
5.62506625
5.613156988
5.557571168
5.576608248
5.537053207
5.444640646
5.67388539
5.724993216
5.608179981
5.649797492
5.48249895
5.493298389
5.366728318
5.347929868
5.380293327
5.70768093
5.461252883
5.473776217
5.569921581
5.447440175
5.529899713
5.603095718
5.702301799
5.65265544
5.574146538
5.535188856
5.469430125
5.395596061
5.237272983
5.275971402
5.364356832
5.28720327
5.483648343
5.493808952
5.641578401
5.60208357
5.71251659
5.726836376
5.509226896
5.542459872
5.637411385
5.42391331
5.286154472
5.420256117
5.43947378
5.549634827
5.662310943
5.565968399
5.464286667
5.577430133
5.672049146
5.826700685
5.63137522
5.49366339
5.662515354
5.790160106
5.801581254
5.797624995
5.75530228
5.83741934
5.601023066
5.542882283
5.550154331
5.521264121
5.589468022
5.642516688
5.440819327
5.565187906
5.59543961
5.583627625
5.443082035
5.454507469
5.461027044
5.584548645
5.635354499
5.641744539
5.691377828
5.651005865
5.613056594
5.469439706
5.52765134
5.45643684
5.321258884
5.348000821
5.418181423
5.492876507
5.454482277
5.480846039
5.645132545
5.707289195
5.681641255
5.60715267
5.727928352
5.811370392
5.789142632
5.68776758
5.642474143
5.501994913
5.492516732
5.559887157
5.483284988
5.481198147
5.780598968
5.548057737
5.710472443
5.536765932
5.708747274
5.679573624
5.651138297
5.467811901
5.470777138
5.626953589
5.594776077
5.577300366
5.638891204
5.683526536
5.675736848
5.788822117
5.698054622
5.706149356
5.831394571
5.740548954
5.474091397
5.536243535
5.652776232
5.808818269
5.461420435
5.453770134
5.422410322
5.574186702
5.587584612
5.54610191
5.482493254
5.502377388
5.62385176
5.49924854
5.684685937
5.689079777
5.72838695
5.603957172
5.645897867
5.660917484
5.694025421
5.589734513
5.492607108
5.424269169
5.67936641
5.611207857
5.62896887
5.668312061
5.704401179
5.624656052
5.532768661
5.593349504
5.660659397
5.737375737
5.57412189
5.51054332
5.546157778
5.753022744
5.671524591
5.545787866
5.570655014
5.840471227
5.68042513
5.606102751
5.515343025
5.626290966
5.569983494
5.432420697
5.547550252
5.536693101
5.529033556
5.44589233
5.5951666
5.482615329
5.539722941
5.572667314
5.550242573
5.494433339
5.337115947
5.469610941
5.547793825
5.656542492
5.714254859
5.627175988
5.587136326
5.436346218
5.354613887
5.329453314
5.442927845
5.52413427
5.375748776
5.478193134
5.567112513
5.662762776
5.580302544
5.478965356
5.723229537
5.754324631
5.721344932
5.702303474
5.592008458
5.518419432
5.490589462
5.567571802
5.458003559
5.438735088
5.509397391
5.322582349
5.162323101
5.246616106
5.587490963
5.447580482
5.398008812
5.298259905
5.430078905
5.529023784
5.656855759
5.628687538
5.555928852
5.55865018
5.461605719
5.616204886
5.547574556
5.465862642
5.341152722
5.389520498
5.373963961
5.42101546
5.446459471
5.513074588
5.240995681
5.297395034
5.420569367
5.581955359
5.476972074
5.405221658
5.438494248
5.500391067
5.397726673
5.449945182
5.357916795
5.386109046
5.361659315
5.320293817
5.553368939
5.388031369
5.326774488
5.552668181
5.565968516
5.492655179
5.424611253
5.448866241
5.577994241
5.522271097
5.376607446
5.599076965
5.584067014
5.434037504
5.394193401
5.320976152
5.421442858
5.473878333
5.472775631
5.488882676
5.679272113
5.671346941
5.577289968
5.382280267
5.376052082
5.321523841
5.291732939
5.618821855
5.606813771
5.358987912
5.403623763
5.487571503
5.326618823
5.27502814
5.376856384
5.40994787
5.426710498
5.500057389
5.672047829
5.708592997
5.456296096
5.475982529
5.606839653
5.648412801
5.790490632
5.851386907
5.591112283
5.361710311
5.347886054
5.384628275
5.343275645
5.365558488
5.515102888
5.47773862
5.298475564
5.227387775
5.322017307
5.309227225
5.388510969
5.428524395
5.669962205
5.668578378
5.663435268
5.557331934
5.448454208
5.458712546
5.525955084
5.526861308
5.472039615
5.411313562
5.500008478
5.439401121
5.407807341
5.437662676
5.411382926
5.568121802
5.45587144
5.477842897
5.4696368
5.561967685
5.540027053
5.463101411
5.663750871
5.61917797
5.82029104
5.92086414
5.799566527
5.853976095
5.624682701
5.500146964
5.52546522
5.505530798
5.502472766
5.358370031
5.59710213
5.574418042
5.614621524
5.51468439
5.705502049
5.643463737
5.43868799
5.56808651
5.528342732
5.589387363
5.606865004
5.587915482
5.512130585
5.626135029
5.517501667
5.510251686
5.628940401
5.732821578
5.713359839
5.58822815
5.391416851
5.540254883
5.527484764
5.49870207
5.40205929
5.390979667
5.575502647
5.409905454
5.550543698
5.46132865
5.642218669
5.667232074
5.623945754
5.6852201
5.699781064
5.666751991
5.568484164
5.639109973
5.513505606
5.593352053
5.73432397
5.804420273
5.772310197
5.679204677
5.746947658
5.515719916
5.612017039
5.517795207
5.510278819
5.656862559
5.58950574
5.593253065
5.630596386
5.718792257
5.809194214
5.860525154
5.765856206
5.70524493
5.789019405
5.655169016
5.645802822
5.543985674
5.601413047
5.560423247
5.539716704
5.60480659
5.578476138
5.536075441
5.569797323
5.489371311
5.594206103
5.580886063
5.597690386
5.582608852
5.565354739
5.558894284
5.565105002
5.619862487
5.653282686
5.563515183
5.448051074
5.536122761
5.435980864
5.564115494
5.43379864
5.54866645
5.561063085
5.643051954
5.74737828
5.717513019
5.595960203
5.521763673
5.628273233
5.792395421
5.913273904
5.848766045
5.53265983
5.557562573
5.586523199
5.602374156
5.573818104
5.487838088
5.604994067
5.669845039
5.760490546
5.651743029
5.532980746
5.442859778
5.512894017
5.451703721
5.709998619
5.894379176
5.697345816
5.747517697
5.635708977
5.548835919
5.587296963
5.660020856
5.621030548
5.587580365
5.582066186
5.558522106
5.433165807
5.437798069
5.601902134
5.487692801
5.243181259
5.134041798
5.367874886
5.402906058
5.346327817
5.34657757
5.454770918
5.668885066
5.664465015
5.605246266
5.671297001
5.497716285
5.496564288
5.457393821
5.617378138
5.622692322
5.59453644
5.472290456
5.381201516
5.413229407
5.657604437
5.537542915
5.641811384
5.668257663
5.620911074
5.748369312
5.83051018
5.773743943
5.837223693
5.832280169
5.82700091
5.700747469
5.76114297
5.670967574
5.60397902
5.566526251
5.699170409
5.564709407
5.528676704
5.598818767
5.421020693
5.543575562
5.54925518
5.424177206
5.642667977
5.654016711
5.650843808
5.605193354
5.634366985
5.454927339
5.590495225
5.592551694
5.471001065
5.43478176
5.435387317
5.34261001
5.305736001
5.414580183
5.413559028
5.404737304
5.495977779
5.436383537
5.467481126
5.580632437
5.40728993
5.358873515
5.216733914
5.266785517
5.39155364
5.525421485
5.668933818
5.62057226
5.494093884
5.406542161
5.509378292
5.510936839
5.580136745
5.541798277
5.614973115
5.776469514
5.388898267
5.321887406
5.416270829
5.593168325
5.577823576
5.502065579
5.496351963
5.446733248
5.467481441
5.397984855
5.450231881
5.406952033
5.52491408
5.475089928
5.364825478
5.225912089
5.305864499
5.382847981
5.318640718
5.388204528
5.248735268
5.3302693
5.364524052
5.375084139
5.403042871
5.562882781
5.722145506
5.628926802
5.442635331
5.505954825
5.524773741
5.680377735
5.548587863
5.502016264
5.419370229
5.618723622
5.5026559
5.394385897
5.436661194
5.305081963
5.396712627
5.486179287
5.722191896
5.600367023
5.646396402
5.531840717
5.452295183
5.481145336
5.579493658
5.722837342
5.548529698
5.460303137
5.503032455
5.548455031
5.448588277
5.586509896
5.538377341
5.497637895
5.462218654
5.480657616
5.715755551
5.702237652
5.586888175
5.672611167
5.702446854
5.675682537
5.841253943
5.768549436
5.525525715
5.557520666
5.613179312
5.496123195
5.52161313
5.608501884
5.565841164
5.552129146
5.522670199
5.5712836
5.591543767
5.535151975
5.618584386
5.668953557
5.72141753
5.696176387
5.575773702
5.58785147
5.50619131
5.522292313
5.545585136
5.522023598
5.447789568
5.442812981
5.486708359
5.440641518
5.603962705
5.63373282
5.591472265
5.455691439
5.551120529
5.550983801
5.742285524
5.717669036
5.645679853
5.971179941
6.015214734
5.739059395
5.765042669
5.578592429
5.560437336
5.635356678
5.607261887
5.65984717
5.649858761
5.736768371
5.62373115
5.750892367
5.762032225
5.725769038
5.781344254
5.695825378
5.812032009
5.909265377
5.815150342
5.680166468
5.550178444
5.660893922
5.733751968
5.725999942
5.749495289
5.707257695
5.657935788
5.60526638
5.665218479
5.717874487
5.711967893
5.643768132
5.712827271
5.825925631
5.979191683
5.833441395
5.468988602
5.462228089
5.468640921
5.536148455
5.630240867
5.612806675
5.639532189
5.603324856
5.680041074
5.665710687
5.598126267
5.612017303
5.620504587
5.571075165
5.69841646
5.767817459
5.761201804
5.706678844
5.598866379
5.553371913
5.619563337
5.4706142
5.535097451
5.393465252
5.359494476
5.424601238
5.37102616
5.496122913
5.470254784
5.488464893
5.669051059
5.629862131
5.552982694
5.620736688
5.791050932
5.602118897
5.467036066
5.525317941
5.524376901
5.571943436
5.817425466
5.684856848
5.547544191
5.589302479
5.604518427
5.507547761
5.510624449
5.387253013
5.379717767
5.552631119
5.748587579
5.579723271
5.546012502
5.791727517
5.729639828
5.683545718
5.61325667
5.670720304
5.622847753
5.781917123
5.435954307
5.552036979
5.566933976
5.532936608
5.526985537
5.564222028
5.666973577
5.533543856
5.485465901
5.48189918
5.696712478
5.703439708
5.822662422
5.691473485
5.761523603
5.652419471
5.528853518
5.532534454
5.639221961
5.521022796
5.373780281
5.46907046
5.628815974
5.579348781
5.568881638
5.586795284
5.65729806
5.69764773
5.617697154
5.428413152
5.410254259
5.629877665
5.541919913
5.555083285
5.482017564
5.483250881
5.647031985
5.442890634
5.482478206
5.36949942
5.597792791
5.372261248
5.31851839
5.446452752
5.47303563
5.559492259
5.515810327
5.574203932
5.455521665
5.579854564
5.53116314
5.497299032
5.437554244
5.589756142
5.582659437
5.646289249
5.760769742
5.798636294
5.65117101
5.622752609
5.351294508
5.609215507
5.68970145
5.753360129
5.535114086
5.556592534
5.452707958
5.387749532
5.562454517
5.657502096
5.637328126
5.575252838
5.545219982
5.390369184
5.379685655
5.397829479
5.436297419
5.392633088
5.320771751
5.297534237
5.434847141
5.618384689
5.491797879
5.552766276
5.527773543
5.489604127
5.412777094
5.522835784
5.487884856
5.425093224
5.54391199
5.516759922
5.514387937
5.414031888
5.500672002
5.49808393
5.384402643
5.479687546
5.384121196
5.387731522
5.577636187
5.551546053
5.603244073
5.411863685
5.567543715
5.457081787
5.575297635
5.550519805
5.5627019
5.427607325
5.398116428
5.368200903
5.430469061
5.492025149
5.537947345
5.578882306
5.717501489
5.822778883
5.81062354
5.585769175
5.573247693
5.527907636
5.48826048
5.528244433
5.308903633
5.30064162
5.39925515
5.379704178
5.340594857
5.442787161
5.54031535
5.34363356
5.412483121
5.490540412
5.624966867
5.617043656
5.723192326
5.706645911
5.653290518
5.491702569
5.311650208
5.264549688
5.317805685
5.241364885
5.393491235
5.452772812
5.410877233
5.430291854
5.543485585
5.362834078
5.489218873
5.681729171
5.488272989
5.358712877
5.429183397
5.448670757
5.412190468
5.441283418
5.493112438
5.352697471
5.532400594
5.528911873
5.321516824
5.408384959
5.485054847
5.597208947
5.735746417
5.660953977
5.649291847
5.553901199
5.517012585
5.591450834
5.527041955
5.474168909
5.436752264
5.347394162
5.378921994
5.385978738
5.344157157
5.319125036
5.438241884
5.395233008
5.376267231
5.489333844
5.457392996
5.529541924
5.498841253
5.476433521
5.556047035
5.774045031
5.578037164
5.566819082
5.558222504
5.454966099
5.647473095
5.635355868
5.489591045
5.503292333
5.425906599
5.501374173
5.466807664
5.525020067
5.616459767
5.678294996
5.554809576
5.525789772
5.561342971
5.470619075
5.686525052
5.792049147
5.790203467
5.57836235
5.430989533
5.432530109
5.380794754
5.475556155
5.501390772
5.604418438
5.482315899
5.533965974
5.441366961
5.661042545
5.785680292
5.747515555
5.646986462
5.832395998
5.742561907
5.763180564
5.653349765
5.527621575
5.590675608
5.533067481
5.514239363
5.411059139
5.321238266
5.477333232
5.736743495
5.683574057
5.671869893
5.629317442
5.481211733
5.53241582
5.614150765
5.539737646
5.538724891
5.617420098
5.693427909
5.872102975
5.73134025
5.682676645
5.685394253
5.545418609
5.577472914
5.593520853
5.734366546
5.686784941
5.550612263
5.628532892
5.597278615
5.56829756
5.40502253
5.457838804
5.273342891
5.421298083
5.322251507
5.521421143
5.542704923
5.591677238
5.482404123
5.518501758
5.395211587
5.425049444
5.602469389
5.502966521
5.39485924
5.489968384
5.510232687
5.539107393
5.498124121
5.582282776
5.443492123
5.629447306
5.576336553
5.466184447
5.489871263
5.41971434
5.464651727
5.585018224
5.455212828
5.497845876