/*--------------------------------*- C++ -*----------------------------------*\
| =========                 |                                                 |
| \\      /  F ield         | OpenFOAM: The Open Source CFD Toolbox           |
|  \\    /   O peration     | Version:  2.4.0-MNF                             |
|   \\  /    A nd           | Web:      www.OpenFOAM.org                      |
|    \\/     M anipulation  |                                                 |
\*---------------------------------------------------------------------------*/
FoamFile
{
    version     2.0;
    format      ascii;
    class       volScalarField;
    location    "0.001";
    object      Ma_O2;
}
// * * * * * * * * * * * * * * * * * * * * * * * * * * * * * * * * * * * * * //

dimensions      [0 0 0 0 0 0 0];

internalField   nonuniform List<scalar> 
5120
(
6.277250441
6.050210547
5.531720353
5.579182911
5.667144799
6.027426312
6.049790341
5.75027146
6.200535171
5.950412179
5.693320799
5.738675949
5.679576248
5.523803839
5.398229464
5.661760273
5.671756574
5.731588768
5.933903247
5.999597476
5.705905424
5.860146253
5.811863889
5.901366237
6.006581688
5.74500621
5.82685033
5.9813834
6.379012114
6.12575202
5.970211234
5.898165297
5.65591653
6.147707725
6.060941125
6.09765374
6.224905686
6.101783093
5.572476935
5.956382373
5.564642261
5.559002997
5.919181992
5.925212984
5.79518334
5.896428357
5.605389055
5.756872698
5.815064858
5.973334753
5.946751686
5.993964205
6.352531674
6.479274413
6.052017702
5.944382593
5.796853898
5.849853776
5.788329794
5.559632723
6.095496529
5.591732059
5.594951281
5.453670401
5.581126813
5.821723612
5.877389481
5.868929744
5.764020266
5.7144015
5.636586504
5.531852502
5.228202661
5.493138587
5.535006582
5.947187679
6.265058985
6.146030745
5.978353985
6.124375526
5.768415562
5.906253718
6.194822462
6.412196285
6.370307393
5.994113561
5.56900598
5.640957211
5.722637797
5.824902194
5.900623027
5.872880748
6.084666221
5.864137994
5.819542956
5.794878055
6.134340684
5.988102748
5.718458635
5.603120593
5.453325981
5.684540791
5.732382118
5.746725937
5.828541106
6.051332548
5.926831506
5.853727612
5.944127553
5.896997345
5.859058003
5.917461966
6.2472746
6.212531766
5.801233478
5.657528164
5.755430351
5.878720991
5.705451165
5.520088305
5.959488332
6.197567259
5.861174364
5.729173368
5.905584649
6.372112796
6.023188239
6.398126042
6.216052197
6.124337989
6.032613424
5.863171744
5.758739666
6.251389625
6.424144159
6.199294946
6.176266788
5.848761564
5.924276441
5.876361495
6.294883695
6.044956254
5.880440518
5.85162265
6.031878049
6.122271139
6.066175273
6.153361389
6.156446857
6.175185967
6.011247867
5.593493561
5.568793034
5.762803479
5.864159172
5.954740823
5.959651806
6.320602283
6.277846155
6.203321529
5.978398038
5.923866455
6.428827541
6.290857623
5.968833189
6.186699454
5.942288383
5.712890738
5.43901765
5.571798772
5.602122173
5.6399585
5.83855528
5.740306563
5.809991201
5.721857426
5.70678461
5.882018275
5.918385594
5.922651368
5.754591351
6.101889162
5.962639521
5.684815278
5.719469896
5.947389652
5.891030177
5.746950272
5.888549838
5.853143326
5.92016576
6.084428146
6.235005395
6.072193636
6.163104834
6.173760876
6.127638813
5.795468632
6.05246993
5.886465685
5.847129995
5.693599119
5.752477248
6.358819449
6.3148082
5.839743496
6.002022694
6.013724994
5.509315882
5.509325275
5.709609076
5.976857512
6.143414045
5.713000642
5.564894274
5.724521882
5.881236508
6.213820225
6.046391925
5.834583663
5.933131677
5.802781631
5.804460517
5.582891038
5.921005141
5.978526942
5.654151663
5.767606525
6.000070497
6.246068082
6.385834516
6.227783506
6.03946355
5.82157532
5.816984576
5.56015198
5.513069649
5.773314323
5.956464206
5.929994849
6.024340589
5.503730486
5.233119313
5.426537309
5.735633633
5.84210415
5.62375963
5.558502752
5.611096344
5.599034064
5.922566787
5.95641129
6.168514001
6.032322738
5.746318085
5.707945948
5.622967179
5.445380234
5.67699703
5.878306581
5.470740088
5.416839409
5.910696446
6.251689215
6.188486543
6.064539685
5.62461703
5.710447713
6.165369178
6.462050557
6.028853499
6.307758245
6.341398426
6.149300384
6.135966746
5.94652859
5.656123997
5.767534114
5.73611838
5.628888364
5.245978233
5.59467202
5.959236744
5.95950542
6.149166097
6.413813263
6.290282754
5.878099404
5.68425187
6.197677724
6.357178468
6.156095559
6.046543952
5.748027442
5.676413985
5.811919357
5.766450919
5.944314297
5.760102911
5.630466032
5.853744786
5.578839779
5.609019621
5.53889311
5.725671399
5.991681432
6.029831614
6.107782704
5.861992121
5.65907027
5.884047121
6.326930166
6.107419002
6.064488032
6.278412989
5.881869895
5.696557389
5.576344753
5.707821456
5.951698785
6.33665676
6.068312131
6.036181593
5.949545144
6.004304933
5.846025007
5.995688468
6.206300431
6.268724395
6.32760863
6.271150688
5.747960532
5.591700664
5.549993066
5.8743755
5.726922339
5.462538199
5.664555254
5.9441842
6.136782448
5.980515451
5.98995106
5.999195857
5.961722256
6.125297953
6.102825477
6.142853193
5.982115137
5.811381217
5.886843495
6.102069122
5.955105912
5.739324615
5.70217237
5.739997475
5.826502485
5.846051136
5.694185575
5.758056592
5.615914725
5.987707826
6.14954352
5.889180251
6.084310648
6.256541027
6.322935297
6.255908198
6.176286101
6.017250344
6.054643137
5.865441026
5.917430428
5.934189765
5.865826463
5.773892834
5.644511979
5.71226382
5.660080272
5.829474199
6.006260805
5.789155446
5.739432923
5.783423675
6.485751069
6.051781039
6.070133902
6.171082155
6.14032738
6.212956591
5.975981359
6.353518605
6.403795656
6.025642435
5.869291774
5.959731413
6.302223075
6.507619894
6.260220503
6.11189595
5.890099203
6.233660315
6.11572531
6.007537189
6.032213228
6.166653476
6.005657591
6.323973255
6.075248556
6.079929857
6.180471013
6.18783741
6.414388966
5.718473742
5.821351306
5.86670579
6.006979962
5.850819108
6.023722971
6.206604188
6.281707957
6.004376407
5.917663148
5.996781213
5.924984261
5.76533411
6.036244222
5.861931305
6.012221055
5.818975838
5.457820653
5.500712407
5.730342576
5.764235464
5.838685792
5.903132877
5.686690102
5.600413222
5.850311707
6.190420737
6.17470769
5.895252842
5.830715434
6.050438773
6.263880615
6.058257105
5.584345029
5.739763539
5.918776609
5.979119325
5.863258139
5.870007413
5.60642095
5.260925989
5.394918257
5.504988412
5.682461553
5.750338133
5.890973168
5.920374381
6.009341393
5.957291279
5.944555813
5.986467095
5.962092769
5.913786725
5.891254101
5.975328287
5.738263582
5.745803528
5.812637979
5.651590819
5.865222316
6.080523823
5.715119382
5.707500654
5.777533052
5.909814508
5.8898233
6.180148062
6.112361831
5.72892172
6.013038613
5.863778523
5.711490285
5.809084444
6.033988524
5.845283884
6.060609786
5.674472791
5.669697765
5.795787808
5.64935574
5.656861688
5.940449839
6.055487759
5.973810432
5.903693852
5.794924995
5.689757319
5.632948153
5.748158875
5.66060703
5.613100426
5.810054686
5.927978811
5.893159329
6.150796307
6.104573251
6.093888349
5.944952149
5.435733434
5.532140863
5.704797888
5.410028126
5.636085614
5.881490967
5.987746111
5.934973203
5.737348619
5.71243495
5.759946779
5.622438397
6.047143759
5.607280375
5.775347555
5.864479245
5.703533471
5.941271153
5.915220619
6.037615634
5.853041992
5.884032098
5.43877078
5.661672221
5.953753985
5.817463671
5.575813774
5.792062074
5.846308624
5.856321954
5.544813771
5.973692665
5.747677074
6.092696169
5.550417162
5.691709982
5.954590253
6.140524306
6.040249763
6.073241924
5.979626109
5.720671034
5.526014167
5.797278517
5.934320734
5.97841353
5.703924549
5.479350118
5.800852708
5.82721763
6.114573968
5.983024939
5.956514843
5.784956605
5.658824637
5.644361979
5.874334368
6.016703514
5.763889154
5.579668667
6.114505757
6.030152603
5.776177374
5.750152479
5.993068763
6.339390544
5.748191964
6.03943451
6.354628376
6.526983605
6.480821499
6.870514237
6.665658493
6.26203432
6.064718019
5.779930861
5.885482192
5.760421445
5.874769708
6.02674645
5.695258967
5.623290052
5.945777438
5.939952558
5.7990321
5.922349623
5.704651846
5.399053979
5.576277521
6.071364233
5.484267209
5.300910058
5.438301961
5.609450814
5.457953189
5.608755879
5.432769086
5.725133775
5.8695089
5.748974923
5.696995788
5.711912979
5.578705487
5.767277604
6.262873595
6.000195747
6.081523094
5.865165459
5.653405719
5.552110714
5.535478768
5.631423585
5.464364878
5.641099117
5.698173582
5.866023505
6.211886589
6.529305589
6.442877114
6.001119027
6.050329937
5.911276927
5.981080866
6.123932392
5.742346755
5.729585021
5.802732248
5.72888067
5.500100485
5.520361391
5.717356992
5.797936467
5.828093731
5.854512368
5.849718021
5.824293903
5.881335643
5.910868642
6.071345825
6.395930895
6.314277037
6.030467066
5.844601877
5.654527854
5.546142794
5.638239006
5.775934841
5.235340992
5.521477169
5.418908739
5.960292714
6.041006047
6.019342284
6.080116162
5.755151398
5.687136564
5.462878805
5.779146032
5.964103557
6.009172378
6.033498435
6.034512485
6.047096274
6.036745351
5.943523619
5.904231764
5.823033712
6.294082057
6.429974809
6.097943493
5.956862097
5.941899984
6.175719161
6.326222539
6.048529585
6.175621091
6.092782346
5.792100481
5.857214876
5.648245036
5.415222321
5.853202088
5.909820812
5.800758784
5.722608274
6.131473607
5.936327928
5.952777016
5.848927375
5.934988787
6.020436915
5.978683322
6.151723262
6.066791956
6.090830236
5.929053085
6.161141057
6.373056817
6.141089235
6.264059836
6.073730216
5.528846734
5.743648048
5.79078789
5.889932103
5.647359478
5.634467659
5.548211538
5.698134921
5.686776995
5.933741098
5.897347087
5.798334587
5.533466837
5.460336188
5.907432314
5.915493498
6.14155258
6.190172352
6.090987827
6.041403397
6.473408729
6.294115596
6.049815
5.711885184
5.45617717
5.659460141
5.944426057
5.992075116
6.053710696
6.0129311
6.002143231
5.734294451
6.019709575
6.030021298
5.922347403
6.095563458
6.014440329
5.925650833
5.999690403
5.793108568
5.77974113
5.834347597
5.762541166
5.77178801
5.830703294
6.012386924
6.135777973
6.111155594
6.081953378
6.020122747
6.088272083
5.924576318
5.932574237
6.072286297
6.216614033
5.941940354
5.69479742
5.773141424
6.024336483
5.927955529
5.830680463
5.843083767
5.931175496
5.866060159
5.553832928
5.860237232
6.054355299
5.750331703
6.033799809
6.271003007
6.035865528
6.083004753
5.93798033
6.074300346
6.09377683
6.022941659
6.201599736
5.976717295
5.889191199
5.993117847
6.04899633
6.221433104
6.252077757
5.761288747
6.021393736
6.063163094
6.036307058
6.158568003
5.951406225
5.465591676
5.610179808
5.795396218
5.953698475
5.934802678
5.923818067
5.823125824
5.760445116
6.016014625
6.245277638
6.277833241
5.866833065
5.654775023
5.403271723
5.748577997
5.820742857
5.927657957
5.999358
5.82317729
5.768460038
6.042347812
6.147263684
5.995088217
5.987082682
5.972542256
5.986940266
5.861393381
6.212160965
5.795043568
5.720191975
5.912746255
5.833230192
6.157623075
5.92091274
5.852503397
5.687124807
5.590819356
5.828515695
5.666239245
5.939027105
5.835346398
6.130356658
6.220016458
6.321497259
6.34960531
6.319164385
5.979978049
6.09878225
6.124298434
5.95498621
6.0559903
5.880301106
6.032706657
5.99691701
5.876928145
5.451418569
6.016673463
5.635599203
5.747286118
5.730294697
6.072731741
5.84487518
5.793220893
5.772139954
5.640663146
5.729950768
5.864515391
6.350040862
6.34807544
6.269617498
6.036858121
6.139367455
5.860124012
5.683460108
5.668659224
5.71130755
6.276054059
5.970466942
5.912606135
5.354350447
5.838965602
5.788873978
5.949946451
6.031665278
5.987156639
6.331998287
6.164460471
6.146550326
6.09902446
6.10684095
6.209499872
6.039668509
6.141451828
5.804915709
5.95477835
5.99845452
5.910942389
5.966129569
5.990141468
6.044534282
6.122067249
6.331968148
6.461005107
5.830403571
5.841693739
5.854299729
5.902433383
5.825803293
5.781497044
5.859984405
5.642928797
5.923275081
5.87266592
5.978452049
5.947121109
5.919131587
6.250615912
6.34173338
6.365281127
6.044013655
6.130079136
6.093611348
5.895064172
5.833149004
5.920733703
5.620223885
5.598031008
5.902301667
5.801588771
6.163267098
5.71252517
6.040663262
5.967944416
5.88737484
5.905897701
6.023118152
5.947556782
6.017887389
6.190538959
6.081369774
5.684315954
5.453375365
5.827898214
5.809422978
5.836445627
5.667472123
5.548587917
5.389539386
5.560874583
5.865227025
5.962488607
6.056608147
6.06819443
5.707258389
5.71823756
5.80394163
5.951332411
5.677825289
5.74256256
5.807301139
6.085384172
6.0963919
5.937107783
6.002975849
6.116027795
5.952972162
6.121469789
5.96330318
5.793559694
5.888816174
5.706965329
5.661175834
5.783387027
5.805496396
5.820077891
5.720816859
5.660473519
6.01699903
6.014678094
6.091468254
5.740718996
5.795481615
5.850328275
5.715721168
6.009477577
6.106738598
6.161931013
5.808727266
5.738993707
5.547662916
5.601261572
5.812217468
5.784355673
5.848508959
6.123030099
6.352917828
6.577293595
6.163683034
6.032511383
6.050424629
6.581105673
6.346733942
6.570122356
6.307208123
5.981802076
5.987826122
5.927985636
6.09566319
5.870948256
5.836419011
5.741017443
5.941868434
6.113477165
6.426800334
6.247895584
6.297120306
6.3740287
6.460635454
6.534277223
6.492084295
6.109603236
5.945402546
5.742692297
5.86766752
6.046941624
5.965041276
5.969598284
5.855998833
6.037270081
5.827846653
5.850447913
5.73643316
5.731101441
5.730779651
6.017907856
5.922662402
5.801376132
6.002505366
6.006350783
6.32119233
5.85449008
5.987272355
6.151177516
5.749356009
5.854631326
5.893451814
5.828178513
5.506052866
5.77536309
5.952857597
6.303297283
5.840610609
5.719333229
5.793596214
5.771485054
6.352225474
6.070286253
6.024432583
5.919604756
5.889866241
6.109499608
5.934708223
5.876673808
5.887100999
5.771821081
5.696194115
5.750306489
5.879614248
6.065725717
6.00900139
6.20323202
6.071204494
5.60640378
5.826824482
5.827240374
5.857409359
5.86074486
5.895573986
5.749476743
5.749359076
5.745434602
5.707824361
5.88566367
6.290845264
6.043894303
5.902003075
5.987916161
6.122530333
5.910278184
5.823006302
5.682144079
5.499474162
5.869503535
5.764645825
5.748837394
5.751512324
5.728774951
5.882346406
6.089209535
5.815827501
6.367429601
6.406158697
6.367567484
6.159082374
5.926354522
6.152500213
6.381443223
6.249807237
6.129529519
5.97924662
5.833409424
6.127845352
5.997463433
5.971812663
6.066154905
5.983459216
5.917790709
5.895134263
6.030474104
6.048674685
6.079433355
6.039648678
5.71042332
6.001641432
6.389351901
6.058067299
5.941491938
5.832832289
5.88288637
5.775168139
5.798335856
5.910099415
5.845322681
5.788531583
5.810421546
5.899444967
5.960759588
5.790659232
6.057685422
6.044014955
6.088576835
6.286755998
6.338065343
6.171575524
6.102790168
6.036686218
5.69097881
5.502732491
5.88719847
5.881330809
6.117193872
5.970946148
5.68706672
5.960919355
6.06931425
6.075142597
6.391974161
6.103689459
6.048100774
6.013335676
5.900537476
5.845883689
6.123293312
6.175565154
6.288991242
6.122942579
6.500743878
6.436073512
6.173525713
6.221764696
6.367371406
6.066200052
6.039150757
5.947763081
5.77814124
6.249707761
6.198153924
6.513623684
6.229041579
6.081239131
6.111596986
5.82525067
5.714727291
5.654383333
5.932129017
5.823342965
5.730511462
5.483195859
5.569542724
5.728578396
5.603049636
6.020409321
6.093728311
6.036724367
5.787623706
5.786497406
6.023735497
6.209704029
6.457547396
6.380410911
6.197922677
6.045726879
5.714909278
5.671064011
5.66914282
5.585660179
5.74871684
5.946358073
5.749609623
6.082876468
5.93024173
5.968758619
6.153774605
6.456137594
6.106909797
5.812877162
5.522810526
5.676789387
5.796592473
5.758993098
6.062265195
6.132284512
5.908334386
6.342710815
6.332328356
5.774025979
5.740049087
5.899385495
6.099010321
5.881742795
5.72734708
5.594310821
5.633122674
5.726345456
5.979245733
6.435774303
5.989084297
6.058934931
5.851750853
6.088445152
5.802035735
5.503724454
5.70799061
5.499263588
5.384877912
5.651615492
5.523541835
5.667532851
5.825601682
5.663266091
5.971507918
6.051755996
6.223046843
6.105167883
5.893230943
5.772925599
6.051837131
6.084863932
5.999421275
5.786372157
5.921803751
6.091878462
6.006521535
5.759906097
5.811548613
5.648580119
5.83765717
5.840545065
5.778780219
5.76652739
5.788930464
5.798972495
5.883450803
5.792559295
5.708047013
5.863945744
5.815150611
5.630162157
5.716101445
5.94292677
6.027668038
6.140497439
6.343688961
6.228007122
6.32348299
6.341785912
6.195589232
6.062184036
5.883504747
5.700376971
5.63159923
5.653661089
5.473474124
5.772656772
5.665898464
5.918733654
6.042055891
6.32551889
6.265338944
6.095550972
6.137424131
5.969719441
6.063062573
6.355614471
6.041541059
6.216376635
5.919096533
5.780492819
5.716370321
5.951616484
5.971565427
5.881729812
5.963673197
5.727294188
5.639435329
5.673742267
5.801763257
5.933468677
6.120532118
5.720478306
6.227382396
6.273458965
6.084139642
5.99735308
5.81399048
5.741219298
5.965450947
5.873605629
6.071583832
5.587244388
5.602533306
5.764220155
5.893748344
5.873383439
5.971458512
5.762662335
5.722635026
5.679375606
5.865370006
5.798663812
5.434235407
5.718147292
5.757925591
6.090145605
6.042243649
5.867958403
5.905875649
6.144828623
5.668430172
5.754675398
5.849320209
5.804000333
5.824389246
5.595734204
5.965023818
5.6962655
5.913563918
5.841496361
5.60207499
5.534415924
5.96376627
5.833868345
5.723713129
5.685157765
5.918095422
5.862645671
5.764882664
6.066247926
5.963634056
5.889019209
6.029666294
6.169882176
6.335259517
6.276425754
6.013732683
5.918773114
6.073665251
5.745697185
5.949092181
5.891534051
5.885309812
5.885090976
5.556019224
5.436436611
5.386577504
5.394485496
5.774909124
5.884191899
6.153054448
6.058694211
6.063833465
6.006351876
6.216344552
5.812901436
6.058993002
6.245855076
6.03979286
5.983717475
5.943710653
5.941969052
5.510339457
5.397258468
5.382344787
5.652895174
5.988799654
5.856464959
5.669092108
5.924490608
6.122963332
6.26142712
6.174909567
6.158126236
6.022539382
6.294822588
6.42061218
6.285602982
6.058222684
5.840973151
5.629523765
5.762443003
5.936163247
6.083270338
6.303907523
6.056303526
6.196696793
6.181373296
6.195492799
5.995942342
6.17200891
6.113181229
6.262474826
6.131584041
5.829643178
5.785503247
5.852017826
6.193748503
5.946914586
5.823397047
5.805319115
5.925074867
6.032057626
6.072793324
6.158743813
6.185570737
6.087566533
6.181145415
6.217603452
6.10105242
5.758789721
6.000751834
5.811434516
6.019208742
5.936236066
5.821970504
5.400910909
5.608702959
5.61021258
5.995276005
5.998990953
5.777133479
6.517522073
6.616976739
6.851250974
6.652404417
6.260755334
6.068130007
6.363032457
6.625419025
6.27676151
6.371671034
6.609757477
6.344660091
5.968671067
5.965982203
6.046537344
6.013962788
6.04391903
6.193503753
6.289596407
6.55819278
6.052445501
5.902401305
5.829975894
5.889418576
5.736956844
5.958833175
5.936586025
5.985716677
6.013847101
5.947340958
6.003813777
6.107311015
6.20805867
6.387322707
6.401566604
6.167823815
5.871096461
5.508202026
5.670874314
5.828001267
5.800765989
5.757498266
6.257475791
6.01491916
5.932554043
5.793451525
5.710753809
5.547815414
5.516039363
5.758080084
5.73601367
5.944915016
5.845953581
5.82338453
5.980810588
6.094782475
5.918538191
5.714774371
5.762969397
5.628261306
5.838092918
5.776194631
5.703977662
5.633284198
5.66301858
5.782076377
6.036040214
6.152624073
5.952309342
5.960825112
5.976565104
6.174415839
6.164092683
5.696079581
5.76153888
5.905180624
6.014086361
5.916157079
5.823266458
5.931810267
5.774093277
5.852917337
5.738558764
5.611490665
5.612998677
5.908191926
5.957121143
5.860598769
5.784316144
5.921709563
6.205703683
5.789292063
6.02152999
6.218432718
5.911178255
5.858679538
5.942462388
5.798439635
5.8601948
5.787993208
6.067811844
6.171219902
6.016239976
5.756799005
5.755547903
5.948011666
6.148598468
6.170333871
5.868212406
6.08285862
5.844396272
5.826426459
5.935785642
5.960231611
6.36265083
5.908088626
5.681897588
5.828004628
5.918776924
6.000223793
5.881052538
6.172442384
6.00127609
5.906572316
5.848119812
5.437934893
5.629088208
5.696666057
6.048823684
6.090273145
5.60337138
5.570303925
5.631697647
5.852876232
5.784350542
5.656244507
5.572404026
5.583917895
5.707681696
5.586355577
6.198373066
5.621769398
5.65968012
5.918378563
5.837456717
5.772224691
5.919602717
6.175000138
6.155297442
5.935468918
6.145910738
6.377433508
6.324291502
6.212409184
6.216238128
6.201651831
6.116126851
5.772401671
6.051176026
6.132772787
5.908881481
6.178287654
6.236215248
6.058061019
6.081439507
5.851638196
5.925741764
5.901206407
5.941578101
5.666821767
5.838598302
5.996047678
6.094161139
6.02821026
5.943483351
5.996292989
5.938976914
6.086217219
5.982344288
5.918976733
6.255113431
6.538931209
6.307126926
6.425020132
6.287674376
5.966326401
5.883594429
5.730927167
5.685264855
6.178787103
6.054909989
5.996342069
5.928824208
6.060018211
6.072916553
6.349782789
6.253038109
6.369566084
5.921956902
5.853433478
5.75750531
5.684607955
5.910943204
6.140866696
5.984716974
5.832833812
6.062840135
5.886395171
6.13714429
5.983887831
5.815016236
5.708431824
5.808519813
6.110068822
5.951922513
5.754452327
5.946985407
6.061131673
6.048721339
5.879883775
5.851296374
5.595711348
5.177165238
5.582105557
5.755913505
5.803115576
6.163928024
5.988925659
6.326101785
6.342986294
6.085560856
5.951679805
5.852753351
6.06356397
6.332786132
6.222014808
5.976571963
6.225775441
6.251277582
5.89476054
5.772855081
5.942906995
6.010512342
5.839221772
5.614665007
5.951188401
5.924314635
6.087022346
5.771080681
5.651501301
5.616044355
5.816855722
6.219191026
6.386862715
5.998049431
5.916316872
5.793525719
6.305696656
6.000867157
5.933409761
6.410651365
6.174090983
6.238907011
5.980733834
5.958911772
5.808980531
5.887959394
5.993106059
6.332083174
6.153993466
5.956350451
5.974516395
5.734525872
5.633856393
5.814661
6.099971373
5.877855841
5.590610271
5.868181313
5.935538343
5.902501125
5.987674342
6.020269215
6.230619951
6.315836612
6.367887863
6.447363685
6.197967958
6.064232307
5.988133705
5.985380649
5.709046005
6.122951627
6.162103785
6.032134857
5.680690758
6.16531652
6.334013401
6.534722101
5.888060818
6.143609601
5.9665488
6.218339583
6.062455043
5.89356847
5.996792954
6.022755225
5.949581412
6.07826007
6.545792837
6.323738011
6.02693107
6.032545269
6.195607481
6.437694205
6.470407652
6.191892127
5.949671064
5.679966793
6.069753281
5.730309959
5.726828789
5.816385003
6.145351757
6.09831721
5.837073855
6.018230062
6.157246606
6.20837914
6.052875193
5.870715564
5.792487051
5.972186834
6.214698229
6.169272778
5.917849055
5.924001747
6.109053654
5.966991224
5.747828089
6.321679872
6.122647407
6.166699987
6.032064225
5.994602147
6.064879749
6.092991764
5.901167684
5.895006839
5.893410422
5.864392446
5.987622885
6.131456722
6.2638643
6.254004509
6.090029631
6.26743792
6.468986813
6.48578212
6.390720779
5.730845504
5.87710162
5.515723294
5.594897534
5.585294441
5.910180224
6.13646132
6.09461776
5.989708149
5.746589702
5.810325103
5.715979042
5.735543838
5.975131019
5.885403636
6.265018702
6.293468378
6.095336897
5.822314579
5.633570337
5.763094344
5.946474832
5.90833821
6.368512338
6.269454938
6.058091803
6.007493836
6.13125386
6.066666584
6.21817411
6.105219391
5.986607472
6.129322677
6.457909017
6.297807344
5.837598116
5.822734654
5.955032199
6.60039835
6.409083487
6.017063761
6.085552926
6.272011584
6.148557417
6.068860526
6.002153391
5.7165514
5.751075566
6.072625415
5.893589614
5.917679507
6.131571952
6.041706405
5.968883326
6.343723759
6.665883371
6.538649059
6.323521713
6.014959942
6.016348845
5.885218268
5.729308698
5.816241219
6.003599782
6.188890582
5.916708068
5.954126928
6.007197449
5.818615191
5.810957005
5.885875219
6.371170229
6.1751802
5.814973896
5.812713827
5.970647851
5.815018204
5.654840312
5.683475045
5.985337479
5.90775557
5.949319163
5.761605296
5.640893768
5.574577301
6.074244019
5.803032375
5.625026642
5.581427976
5.562635733
5.677169975
5.488472806
5.567478374
5.593169567
5.808735092
5.757499595
5.579417189
5.818359021
5.877557336
5.943450798
5.758151447
5.883506123
5.88922718
5.623745042
5.625131347
5.726124585
5.791127134
5.894536126
5.804004283
5.782910822
5.719032867
5.827489517
6.069723558
6.047223285
6.012132917
5.784117896
6.406705867
6.200094314
5.669071186
5.443325046
5.930160722
5.763535192
5.762653255
5.824894996
5.861961542
6.30132018
5.992885496
6.003641479
5.795423324
5.908687184
5.892505513
5.86910308
5.825363615
5.969090304
5.802162616
5.674158694
5.561578233
5.580901919
5.842265968
5.906759329
6.208910092
6.160645951
5.842631292
5.683991023
5.677333892
5.902442016
5.775842978
5.67951453
6.05352041
6.01965249
6.107277685
6.180111519
5.988934663
5.812125652
6.175571067
6.26859268
5.932515308
5.993754957
5.802647036
6.194430556
5.814722897
5.619253132
5.875498196
5.930393576
5.828372445
5.690070678
5.915663012
5.876470574
5.871943112
6.248793726
6.311199945
5.993729619
5.663733484
5.482504927
5.32264873
5.420029702
5.538632904
5.6104931
5.798693154
5.791633503
6.200647792
6.04920334
5.968730763
6.135878661
6.139243092
6.261819521
5.862186646
5.858708319
5.953998565
5.748346557
6.130816986
6.401151229
6.107946807
6.13331412
5.972135633
5.540307689
5.590751493
5.584629394
5.651120102
6.170518889
5.869902039
6.078659824
5.762814065
5.549389148
5.943266456
6.186269243
6.399881874
5.982736615
5.948857531
5.802481058
5.960856842
6.13508777
5.873891379
5.889282799
6.238464324
6.267708134
6.373826111
6.116680444
5.826703065
5.863124465
6.470912661
6.099632559
6.33691402
6.453242675
6.329025715
6.062489941
5.841466653
5.79936338
5.741180616
5.992396245
6.255101771
6.199999121
5.978423387
6.286868346
6.585960349
6.536327596
6.228981468
6.245486644
6.404537828
6.618320324
6.058425893
6.235101508
6.12573311
6.020445726
5.94495248
6.135122874
5.991498067
5.95893333
5.931514142
5.996077365
6.141250126
6.329182656
6.427588369
6.111019427
5.799098559
5.90423584
6.051045031
5.853282682
5.939171059
5.842827383
5.737098268
5.838201397
5.849549372
5.959172303
5.825212096
5.816412068
5.754818945
6.108856787
6.11440427
6.16186186
6.365821401
6.307691627
6.340849857
5.924456191
5.610611777
5.811074674
6.142492991
5.952169527
5.865966873
5.776223284
5.767875854
5.902753689
5.840461647
5.62497398
5.599916189
5.86711046
5.769920091
5.849007535
5.709319667
5.981613259
5.923861838
5.835044964
5.738763223
5.835762681
5.861714598
5.970463591
5.645319256
5.610818329
5.741111972
6.235673889
5.960317411
6.080584089
5.947931137
5.827430153
5.762714246
5.675136295
5.647747262
5.657639669
5.916925198
6.032565698
5.503179484
5.598482897
5.551643239
5.679083958
5.585674564
5.584230483
5.744717325
5.778929404
5.842183037
5.932114355
5.858758214
5.672476715
5.722168278
5.993943739
5.9141462
6.082796096
6.183719938
5.997341502
5.50927344
5.612310842
5.872591551
6.21847476
5.906541657
5.767028112
6.218235438
6.270847761
6.276771593
6.296531625
5.916251703
5.777326106
6.162742702
6.458331513
6.431910813
6.144241471
6.050910597
5.905056299
5.679130881
5.783866239
6.375832961
6.302280048
6.499264271
6.123578655
5.801080167
6.166212243
6.061524784
6.116370111
5.931919792
5.883966625
6.131642162
6.012752472
5.834608844
5.949691491
5.95168295
6.127944052
5.785525746
5.81683052
6.020232706
6.201831957
6.203957147
6.187809945
5.942344493
5.964932275
6.041754079
6.10439558
5.836936561
5.954174407
6.272955628
6.336224471
6.097845147
5.877635131
5.85770986
6.147799301
6.328171597
6.054913376
6.003244886
6.119755975
5.908091244
5.981136778
6.189498821
6.017584431
6.168644289
6.202104296
6.266016111
5.938261273
5.703253949
5.736775198
5.577562401
5.658368831
5.787519598
5.799959497
6.114723004
5.723823789
5.6256045
5.582035846
6.008902519
5.828336024
6.007852804
5.87978217
5.641761717
5.9341431
5.815531034
5.887376726
6.052388536
5.713781358
5.581556591
5.603426587
5.84940036
5.929012049
5.772955747
6.164482883
5.790606414
5.645653691
6.142226004
6.114539564
6.126112006
5.727489825
5.835152882
5.891160785
5.713172469
5.991124952
5.835518158
5.880177561
5.465707597
5.607809402
5.708334685
6.047344275
5.927546754
5.721288369
5.79777474
5.758800591
6.005967809
6.103923544
6.009797864
6.059409696
6.317105907
6.369806408
6.274759399
5.663533077
5.587343332
5.634843571
5.546471497
5.569113509
6.008726318
6.29674576
6.32358819
6.5476422
6.537930531
6.502470435
6.285563041
6.188085404
5.886311803
5.98094916
5.690147411
5.51690978
5.559456417
5.335919249
5.507167515
5.655192706
5.747084401
5.815255912
6.023096624
5.893954565
5.852367827
5.78233247
5.736847012
5.714399346
5.883252459
6.056025765
6.031194482
5.901817422
5.643892309
5.809896644
5.88904464
6.242888533
6.0139591
6.1342092
5.900134034
5.883975141
6.250711588
5.787367663
5.927496654
6.052433937
6.198462794
6.200117435
6.146189443
5.737211602
5.587556536
5.567117019
5.586006777
5.446874714
6.043820751
6.505358265
6.563778707
5.948428457
6.085966919
6.020881434
5.988007013
5.988099992
5.616441415
5.683077559
5.645642912
5.940014796
6.165657716
6.053893285
6.104817583
6.077023381
6.252009869
6.180289806
6.081053052
6.069124135
6.120295012
6.266170623
6.053162347
5.886274573
6.125637184
6.019903269
6.053915381
6.292783871
6.599226677
6.523286868
6.149964976
5.919545884
6.1665732
6.059653412
5.714759507
5.738846647
5.943406779
6.107152738
6.176016208
6.0146842
6.303817666
5.8568389
6.0111941
6.178404713
6.278962188
6.060489014
6.001396472
6.037218981
6.353702665
6.141776304
6.075307584
6.135173855
6.001586141
5.820272364
6.205140573
6.310917768
6.1988699
6.155853826
5.889980055
5.854519065
6.12872722
5.814748007
5.612182258
5.64805056
5.83528391
5.895516687
5.920339578
5.946073864
6.135270723
5.916457406
6.448984274
6.105517025
6.095098425
6.168276746
5.962490667
5.887346441
5.922740085
5.92054597
5.994577985
6.20829792
6.199194987
6.209221594
6.174643929
6.012377986
5.74961456
5.962609631
6.096922615
5.990113112
6.144714624
6.230271679
6.00258226
6.158212458
6.01362352
6.050199454
6.087823013
6.104063059
6.161824083
6.020356599
5.868360509
6.02346385
5.642812018
5.604509838
5.82263521
5.726861154
5.918449012
5.541141543
5.657245578
5.725743516
5.86387092
5.912202684
5.971604
5.812067511
5.945648676
5.767794833
5.84577256
5.68687728
5.617474477
5.558653983
5.448351002
5.362878223
5.496637843
5.323628511
5.492432769
6.069822135
6.146080186
6.201281231
6.255088884
6.079031163
5.890215871
5.735227427
6.066469155
5.966359535