/*--------------------------------*- C++ -*----------------------------------*\
| =========                 |                                                 |
| \\      /  F ield         | OpenFOAM: The Open Source CFD Toolbox           |
|  \\    /   O peration     | Version:  2.4.0-MNF                             |
|   \\  /    A nd           | Web:      www.OpenFOAM.org                      |
|    \\/     M anipulation  |                                                 |
\*---------------------------------------------------------------------------*/
FoamFile
{
    version     2.0;
    format      ascii;
    class       volScalarField;
    location    "0.001";
    object      overallT_O2;
}
// * * * * * * * * * * * * * * * * * * * * * * * * * * * * * * * * * * * * * //

dimensions      [0 0 0 1 0 0 0];

internalField   nonuniform List<scalar> 
5120
(
278.0556437
289.3639927
314.0661712
304.1332549
298.0062212
285.5820904
284.0344861
305.157998
279.7717154
295.1550573
306.5756221
302.0050154
303.8271289
310.5543958
335.5907756
311.7155932
305.448792
308.2573547
287.4361519
288.8294721
272.2533453
260.9810848
275.4964243
274.9098557
274.1132077
296.0555357
298.5964493
299.2992693
294.1845014
292.9862529
301.8453845
304.1006971
322.9607615
296.5917519
280.979912
275.7684162
262.1462765
264.2991482
295.8833018
256.5552558
331.7378932
326.9033105
315.4029618
312.4488703
305.7922969
300.8538893
311.7746401
306.2939863
309.774923
301.1019267
299.574616
284.0181783
260.6969489
263.0052254
290.5546791
286.17717
304.615716
308.6837411
314.6400566
326.5913392
297.1831237
322.2887153
311.0180041
325.9044065
321.3608736
311.8968242
298.1857682
304.8203223
312.1384353
317.2448557
317.6630204
334.981689
344.1570198
316.0094316
309.8502893
295.6434962
287.0177504
289.8586608
288.9558767
288.8328294
290.6003431
287.9707676
289.0641316
270.5218604
269.4245706
289.3351585
325.9669157
322.8454752
316.0914936
304.7363104
314.857641
306.9367511
290.5594726
293.2958424
294.1613047
298.3440757
287.4903793
303.1517659
323.231571
314.5356056
337.6440278
323.4233578
321.9125004
332.8267166
322.5375885
301.7036224
298.6469405
301.4419448
300.1205828
302.0509455
293.2893172
293.1319222
279.8779332
285.6790534
308.7860852
313.2989618
305.2131704
305.2086427
323.0849185
343.8677698
297.7968695
291.1255001
307.4551073
316.2857579
304.0029069
284.2948221
303.3311997
289.5046839
296.5835237
324.2867824
320.6861274
329.9069617
332.5117437
304.978692
284.4832457
301.3620865
302.9291175
313.0600888
296.1273739
306.0832229
280.3739456
298.1670145
301.9287648
300.4699585
295.8418667
279.355186
296.4011246
294.6342794
288.1060466
289.6113071
290.1234035
315.7800342
297.6630057
297.4197142
294.9339599
298.3403798
295.3916582
281.6001383
278.6190069
276.9333027
272.049557
281.8406387
258.5699522
271.6601548
285.7193019
273.0646274
303.5194377
321.5798835
331.9347154
326.7697006
339.1926324
320.5535195
301.4861686
294.8962099
285.5092018
290.5565698
293.6152284
291.3267429
281.2252232
278.6200554
292.2795601
288.5239363
303.0775078
309.5564965
306.361156
297.6270064
291.5819245
293.2449182
291.7569971
301.2669834
276.9882401
273.0319587
273.6019963
282.2473122
282.6693635
288.2563159
286.4695546
303.4668113
285.61602
289.5324939
274.8725114
283.3843508
289.7444744
260.5714511
261.0218999
300.6966314
275.5625926
273.8036961
300.1298955
313.6153128
310.1230228
294.251728
283.0539401
313.0159188
327.9599244
324.4386991
306.141327
268.0159371
267.1588141
275.3969413
297.9095396
302.552534
295.0256975
309.3027825
292.4564324
288.1204982
305.2463324
290.9913067
271.450309
259.8268903
250.0541173
245.771036
242.7132013
256.4666596
266.9239595
287.1584818
302.4159699
287.8253172
287.3380271
291.1168285
295.9184501
323.9866036
338.822897
321.2446855
299.8735825
302.1790201
313.3768205
310.9195634
308.2554488
325.0465557
299.5260652
301.3456902
298.3679888
303.1240143
298.7210965
303.3015989
305.1740281
310.4403948
307.3438179
301.9136912
329.9480015
332.6826335
306.2352162
287.1025643
311.7023624
296.1113999
314.0871559
308.471567
284.3237171
269.9533291
292.8397961
278.8860502
283.5467564
293.0419479
293.5244596
317.9759593
326.2496733
323.3660778
312.1465341
310.177144
313.8031815
308.2639589
299.403415
290.9271152
304.1501366
299.2141372
302.3790892
326.2796901
337.8215211
306.9528047
282.0720142
293.1496333
290.7776868
326.6502394
327.1362952
306.0470171
307.8741538
289.150286
303.67547
297.3620408
305.7440035
318.4297363
315.8615104
336.6135559
319.9456364
299.6252932
294.2966009
287.2523403
300.9080248
320.6167961
317.8177595
308.9356079
318.7626177
312.8023888
298.5581997
318.465222
321.0341125
327.8274338
304.7908044
290.9018291
275.1873016
278.0129563
285.7908028
292.4557999
285.0985971
287.634295
281.9197015
268.6825158
265.8336068
266.3680017
269.4537724
291.1871038
293.8209107
292.873811
274.9394385
283.619697
323.0927172
319.2052515
311.4705671
285.9444873
283.4498186
280.1706063
276.8485752
283.4451922
286.2716507
286.6757175
283.2913507
289.1264419
289.5114074
284.1667295
278.4777488
287.4890713
297.4981245
306.5398341
306.0372944
300.372707
288.4273178
276.9528528
277.9126134
296.3801889
291.1813537
290.2583041
314.6275098
316.7026778
313.1545997
312.4196259
303.2350744
313.270691
321.1231143
318.2602756
327.7399752
317.5073037
311.1526955
301.2289637
303.6164234
307.3602857
297.7189257
301.8557117
297.2498667
291.2227191
309.1601882
333.0094961
326.3903949
285.441046
298.2427036
285.9438737
290.3981965
291.6102964
289.8039128
309.3720832
288.5246156
281.2153408
305.938108
327.1744943
316.1397633
305.8440827
286.8630335
294.5533891
301.4480212
307.8447568
303.1670444
297.0767005
305.6317225
293.3260725
273.2563254
293.399014
280.9458808
294.9134416
294.6327907
291.9140193
284.6801634
270.8582732
300.3447041
294.9119305
285.202052
279.408451
292.1593538
284.5571184
287.4737716
286.4592921
300.7103437
302.5371917
300.6933874
303.7934691
325.3399418
307.7513016
315.0765286
297.9468668
299.8017189
318.3946414
315.3445274
295.6585324
305.069488
304.8296862
297.6650024
322.182731
340.1843519
314.5265607
286.1588104
291.8035711
301.0605906
311.0229406
306.7203423
302.5897643
312.0790865
324.0395304
315.5629777
296.3561431
294.9562932
303.8322489
302.4502843
334.8775418
351.0635959
327.054111
325.8461723
303.4995811
292.3438666
292.1809988
297.9509716
294.9240963
297.4817239
287.7771265
279.9461812
288.8605845
301.7047876
295.7472044
299.0025591
325.1198783
327.0532264
322.1195651
339.5051428
321.8941061
309.4339271
343.954485
340.3231913
340.4974
325.4785768
309.7503008
283.0244
287.945263
324.426805
296.4107495
310.8029188
318.3553427
311.217857
313.3711716
329.1772332
300.7856191
332.0978749
336.2256018
327.2122026
335.2186915
331.0884051
318.4489104
298.3696312
299.0086027
306.0143063
302.8521516
310.7975837
327.382375
329.9549849
328.6978984
315.0161209
317.5285037
300.3239896
301.344948
278.7750129
290.0403237
287.2377784
299.3379748
336.9690534
326.9888545
328.8121003
354.3328712
335.0357017
307.0599154
298.7136771
299.6991948
319.2014283
324.0172434
311.4676865
319.2877818
291.3458149
308.1828081
305.6504988
295.2922316
315.5721158
310.4533343
313.2253655
292.9217785
306.8554508
303.1864435
332.3908985
326.8173332
308.8806673
319.8338033
336.937572
320.7756384
316.4216717
303.9211146
299.2399032
270.9475156
286.0070892
270.9705656
294.2433663
288.9761296
279.7944173
271.5440757
281.8439406
286.6464046
287.2364624
314.0400041
324.2607055
300.8611939
301.2414768
288.5894783
303.3396003
326.6953046
303.2761768
308.7412199
274.8067832
277.9382443
284.0646577
297.0313678
298.8091097
293.1951033
288.3689495
288.1536073
307.6261442
315.5127697
287.2992451
277.5800578
292.6868637
297.9445422
283.0600291
283.661895
305.4039143
286.4677283
258.8427708
259.3791168
279.4526076
275.7962903
273.2808637
287.5475754
295.2537883
304.9870123
294.8489624
305.423256
305.8278275
306.4715956
328.4567072
345.0358294
320.7263972
302.7628483
316.2856392
309.7208592
334.7137261
348.5878371
321.5176251
294.9938851
333.770475
308.91759
296.4115124
280.8224488
289.9129889
301.9943881
326.8651266
311.0061512
306.0844174
310.7061745
315.3625272
306.0447235
314.8992376
287.8676905
259.8629932
277.1704771
271.7238664
295.4398592
322.7722072
332.9906913
321.681135
310.6428812
316.6213814
301.2939536
305.1723266
298.8780763
280.7766206
260.6978914
264.3599604
280.8679375
278.1345781
287.8692033
284.7487542
282.8784873
298.8288424
289.681376
286.0641048
284.4170881
307.3296291
309.9530052
319.7624221
318.5420591
328.339592
323.8651153
323.5414125
329.0709655
296.569276
279.6415449
271.3145157
261.3967283
255.979803
286.5801926
292.5616502
309.1521292
319.8994097
307.7348504
306.229093
341.1187574
325.0180885
332.9009724
316.8253906
310.717984
305.2049809
287.9518625
300.7579526
297.1078292
325.7189295
319.3906446
311.2285983
300.9937342
290.7844558
292.0400829
300.4739703
305.3098592
311.4638267
304.2296386
317.0013723
305.3810947
312.7284996
321.403696
292.457761
299.0159565
293.640847
275.2110981
285.7033893
284.2249502
296.5373457
307.3507397
294.2834056
292.6914287
326.9674654
286.2405586
295.263184
280.2239769
284.1378767
276.1968692
289.0685044
289.6697315
300.2834563
307.9894533
296.4984774
294.6359995
290.6953316
290.4379216
283.1386998
293.4654746
288.9336125
278.4524336
281.9930807
289.4972365
307.0924482
337.1801655
324.9665747
322.5456941
318.1556253
324.8779074
334.1908955
334.0069103
326.6594546
313.8799862
302.7171891
292.8552931
287.9162813
310.9899697
317.5080145
295.0174506
317.5013153
297.9123146
298.7786698
291.8821308
296.0804689
267.9647688
280.8136085
293.3655726
315.3212246
320.8071439
307.6270012
282.8571733
274.2030816
291.0011554
305.0190041
311.0253693
320.704784
297.3782193
299.7896821
312.8012705
293.5913544
297.4632675
296.8764013
279.7738292
296.3205812
297.5841271
305.0677747
315.4330017
310.8962043
316.4634874
304.6288883
308.5260197
316.1250853
305.0699165
315.1468225
295.0145362
293.3774852
294.7139273
283.9477947
266.951078
282.1888457
299.0441979
285.2723819
276.4045418
292.2584967
299.2782179
300.6392898
296.7903671
294.5872298
314.3048681
304.6946913
298.4995851
320.254561
309.9193857
268.1777468
270.093141
260.9106125
273.0458643
271.13682
271.8162268
287.8251158
290.7996843
308.4240997
316.985169
313.2164513
296.8161194
285.0367754
264.0655138
305.3375624
279.5788719
276.8594533
286.1433136
277.8314555
280.7717249
306.1179747
316.848645
306.3957202
297.7520036
295.6370042
283.2897842
291.1593998
292.1590082
286.4348431
284.9142897
273.5572455
305.0757094
301.5692329
330.4107705
308.4688541
307.328522
299.2514598
297.9797309
294.2843864
296.0497569
297.6152301
300.4387898
303.5736703
308.183545
301.1036553
309.0267153
310.9827567
282.4519743
301.1883859
314.9882123
301.6009529
307.4708497
288.6072601
299.3036894
306.3701437
312.9343137
326.6049471
316.0801261
333.7474869
320.3312954
334.7860273
309.0543213
300.0290528
284.1189247
294.6949456
288.0761404
295.4516645
290.338752
299.8291669
306.3771831
299.4483843
308.8611755
307.1883775
305.6801643
315.5157413
342.8873298
305.3251581
323.4643553
306.7455791
326.4192874
308.863397
326.6578308
313.6576297
321.0518837
325.3381163
316.7053756
306.6531672
288.8044591
297.2072857
290.7427137
303.0730196
303.3821905
310.9089269
330.5388679
325.3600684
322.2333641
291.6272848
294.480769
297.6232535
336.3573397
310.8342468
311.3691303
295.3828953
293.9857675
297.392867
280.5585854
281.7903315
290.8205233
285.1214686
282.5023928
285.286091
291.1759237
300.2341377
310.1821753
296.7834193
292.5601858
287.9098365
291.1790963
296.5812915
302.2145972
275.3276914
258.9759982
268.076098
296.6640346
295.4019447
300.6944499
301.1688441
308.6300344
304.5882021
293.7502714
309.0814851
291.4345729
289.2651595
300.8812311
319.5467689
311.1546142
303.9151738
300.7059659
288.9238402
298.2570992
266.8775034
266.2197378
287.9039937
295.0408804
299.2721741
314.6546269
321.3254696
311.8448089
314.6067916
291.2848748
308.4789658
291.7738206
298.0493634
306.9495293
311.5979666
300.7391932
293.0420959
274.4126457
275.3504589
270.6802763
319.9571426
344.8733916
331.4255033
321.5660858
302.7911874
312.5288895
322.2766448
321.3359115
314.0636174
296.0533836
288.7153007
280.4040809
264.2887379
290.8559861
292.9948569
290.8318779
291.7660307
306.5077139
298.084048
296.1080926
293.9043131
294.2730191
321.41053
306.2237677
298.6935939
314.3383564
301.9246689
299.6233149
309.6634938
299.6875236
304.818239
302.1316803
294.8023561
305.5624679
306.5408718
303.4557391
304.4242157
283.2404686
294.1084634
291.8514577
313.5108054
300.8001713
287.8749082
285.6656175
291.1576568
294.9849628
295.9702816
314.6876963
310.2856686
317.8614988
314.6965894
298.6560002
303.0461989
292.5253221
288.7507302
277.9839842
269.454244
302.113989
303.0461949
302.6464617
279.9955433
284.4123696
275.6280616
292.9688557
302.5030769
295.746964
294.5378503
283.9628876
299.3678657
320.1273269
316.4555723
296.1107569
286.7420232
269.2810711
278.4744081
286.725408
285.5735519
282.0174115
274.1265379
272.13676
285.6729027
294.2446271
296.8681866
289.311989
288.6070089
298.0006555
296.1110753
299.9518166
280.7474243
291.2392514
297.9651812
307.7909232
326.7350654
330.9150639
309.316543
307.12977
317.5504914
311.4849524
290.8517768
278.5111517
296.7180696
279.7733551
275.7959298
299.2355764
294.3182985
304.6043016
294.7166654
318.3757262
309.6020361
303.8040546
289.7822133
324.7077325
329.0701748
301.7087516
305.8652614
271.6859776
288.597726
297.0891366
305.6738897
300.0443418
285.0387048
304.1865731
294.5955672
297.2759604
314.641181
315.4946003
298.5704869
277.677405
283.0488833
273.777841
274.5085341
285.2978223
307.5948177
297.5986494
284.8045258
285.312615
303.1480179
300.3083457
296.2292718
297.3847243
298.0943559
304.738482
303.9031678
288.9657588
287.8175444
300.6962962
296.1946824
300.1608899
314.617948
311.7287445
305.8986615
312.3237717
309.420904
311.6657012
320.8336865
333.6582062
337.3081709
315.6435655
301.1553447
303.7220482
273.1163689
265.4379175
273.4129026
282.3797662
295.6893371
294.2700701
290.0074152
289.2207897
286.4448879
285.5218333
302.6843886
292.5276369
294.0195321
298.6321303
287.0316694
287.520321
288.2199303
284.564612
287.6951557
286.1155168
297.7403313
296.2776522
307.9001631
286.1115134
263.2014918
282.3696715
283.3163451
293.8703886
299.2900977
303.3283517
304.689796
286.6527818
298.960304
304.1313247
315.3732802
311.2881718
302.1379287
310.6429702
307.7424268
305.633961
288.5291804
281.6573477
272.4649306
277.6739999
283.0001412
296.8494491
332.9364367
353.1214145
320.36921
308.7210834
294.4500912
303.019539
326.2339042
298.6441867
292.2747454
293.9635821
282.1932571
293.237374
299.2706831
288.8824353
305.9441096
311.1031676
321.8644509
309.3607809
293.3974586
304.7706151
270.5938344
272.2097648
284.5259456
291.8890516
275.5185913
294.977253
293.0517091
307.2680216
311.6753307
286.0892084
290.8962004
277.9206043
285.5688617
289.4753089
281.7170537
303.8461013
307.3636629
311.811596
294.7199863
296.8413577
291.1789014
312.8582221
290.4750289
289.6873834
301.758467
274.5882111
271.0492958
277.2162269
298.3311935
297.614512
276.5002572
278.8509663
260.0125856
261.050438
286.7889972
301.5503486
326.9398668
318.2261882
322.5541437
332.4550308
330.1929223
303.6818076
303.9431148
285.5488946
292.9728449
296.9842102
291.196484
279.6047374
290.009326
303.646387
335.9914341
318.4904236
311.409002
310.6635071
289.0388897
278.521852
299.3054186
265.6752164
265.3448117
285.853677
279.1962695
290.1076126
286.3986244
299.637733
308.6307706
323.9057876
319.2428143
311.1610732
306.8394176
280.9961095
298.5124024
296.0462229
301.6065968
287.5615132
292.6099615
325.6820103
315.1608354
332.0895099
332.9371641
308.941466
310.0580978
294.0723207
292.3734998
312.5197459
285.9383321
279.1893088
268.6551645
270.421762
283.7130384
294.7540602
278.0131633
282.7639169
278.980975
293.7526335
292.7821855
282.5637256
263.3311527
286.558902
282.5542518
307.0845217
303.7864873
318.0895047
327.5876482
323.8292631
316.5382714
299.3193584
287.4688052
294.7182796
303.6017428
290.3543569
291.2183149
299.7692631
301.7367123
296.0284671
274.263479
275.0942929
282.690029
283.8676274
296.3020592
275.8578984
293.1024854
295.3095109
301.281089
313.1908586
310.5082443
306.0957175
321.4331965
304.3886924
300.9288631
291.0116686
295.6205073
278.5563711
268.5522012
273.1741642
294.665928
295.8934167
289.1651732
283.5322871
293.2178229
280.4649849
289.2461798
296.0307591
310.1990982
301.0216507
297.4391457
299.3011523
288.7410067
303.1277371
312.1583701
304.0132742
302.4351682
301.2968936
299.3775102
319.0513299
291.1407827
291.7301008
299.590365
294.6941424
315.927456
313.7095107
304.3407572
292.6831532
289.1409788
313.6175237
308.594734
294.8908827
290.322774
292.2622425
295.497579
303.4131559
317.3927333
322.0148573
298.4019487
310.7823138
344.0757775
328.6339527
328.0433617
314.1014603
300.9676916
306.3506896
301.839136
283.7986211
298.6018038
299.5689894
302.7376137
298.6235981
302.6299826
332.456228
329.4720614
324.0399449
308.1106767
310.2126781
309.3116531
325.2059939
299.6677016
319.4518602
326.377393
314.8328005
293.9012118
281.5663846
276.6680346
271.0723675
288.1225979
303.6511139
288.7136505
268.5941883
264.5832578
269.9464276
282.9091556
292.725827
300.767461
323.328308
306.0527605
298.4194219
311.2891913
304.8556746
322.9209049
321.9329843
332.7778243
332.2674291
305.612332
285.7981803
280.2447786
277.2042096
275.0752547
278.6619152
275.1554161
313.0489406
306.6291338
298.0646158
302.0437921
311.5919853
314.5754526
318.0574426
317.2877646
315.863932
317.7043659
317.5122402
285.4990636
289.4351956
310.9239056
305.1050482
286.9991739
281.4724791
278.5359858
278.5379748
275.8192977
272.8069283
272.0020349
269.6092516
278.3935771
285.1214096
292.2023075
304.4217405
295.0865985
294.4237953
291.1399256
297.5395684
292.0000421
289.2669468
289.1855413
295.7977558
287.7166198
296.6186134
294.5008831
309.3436692
319.3524819
315.0235875
298.5472572
279.4209456
293.5673539
311.4453056
302.5095281
298.9811911
292.0469291
287.9973328
286.1938885
287.9982224
299.7007173
287.0941978
282.5260877
279.3964276
302.0339501
290.23139
304.4127958
293.5108851
296.2339095
302.8557012
321.3731438
301.3313766
293.2569178
265.2647167
276.2582691
291.7309094
278.191134
266.4636315
254.5447991
263.2849295
273.5065287
282.3822774
264.2610677
253.9324657
269.8289417
272.7348229
264.3176338
263.2309211
277.1724526
275.3981224
276.038549
275.5253811
284.6810379
287.3790085
274.5579072
266.4236939
303.6672722
309.0479145
300.94893
294.0984319
305.2999414
287.0405338
293.202614
293.9318392
293.6287302
301.1731587
308.3419935
297.03291
277.738589
263.3497561
264.6015347
274.9290988
295.4617187
314.1109368
306.381862
313.0188659
306.2929313
312.5774315
298.6661641
315.866864
298.1546253
316.4144045
318.2365936
323.7116699
322.7601509
295.3384122
307.8517807
301.7654359
317.2860457
310.3183123
297.7686411
291.0442045
306.4055552
313.2849926
307.8157757
313.3679089
313.3520039
319.1215925
319.7994173
316.9333267
317.2709541
319.6336449
313.006839
309.7228282
319.1366029
326.1519889
311.9620705
301.4922362
297.4728697
321.5443966
331.8350478
322.8500992
307.2671268
311.7956656
307.0821238
303.3684446
299.8150128
296.8639525
303.3257606
315.966585
312.4650973
282.9372538
284.1821914
287.1648449
301.2436372
302.707864
300.5063271
327.1306675
311.9669491
312.1142382
317.8674383
329.1777585
313.3076699
315.774905
314.4529581
305.7845048
278.4070389
273.9018001
268.5087003
286.9129626
303.5777244
299.2031713
302.2493643
306.8980227
333.4175006
310.0331265
309.6211158
300.254426
287.8904442
290.4040832
272.1053615
295.002513
317.3738741
314.293715
299.2688482
290.9072053
296.3817287
283.1875462
296.3584727
305.7289499
310.8346863
337.0552497
329.2755264
312.8199178
303.0366544
298.8015671
317.9477427
313.2900655
315.884691
292.4380312
294.0740911
301.8691794
304.2805562
303.5391739
293.0497391
308.0189003
296.5818217
320.8526526
315.6480946
308.8425676
308.0239655
310.1172756
298.7021559
283.8445527
285.1731586
302.1249126
299.0083908
284.2157022
283.4755768
287.6993347
285.076745
291.7305096
285.1901696
302.3541776
292.9042154
296.9939219
287.0940667
284.4692786
288.0785345
299.9694002
290.4495459
301.4489924
301.2362279
307.422748
303.1956705
320.8382413
307.7671495
298.8837517
289.9842661
295.0677275
290.8073482
290.2071911
284.0000305
272.9416539
278.9017722
288.3451663
278.1610523
283.8274253
285.7107634
270.2486212
289.0692342
303.5503513
308.5052133
321.9004249
322.1821653
289.5240338
291.493805
305.3952393
295.9874871
291.1439503
281.7768088
270.9325911
272.462553
275.194817
290.1031275
294.3411685
300.4838526
315.5262194
308.0868174
311.5695621
322.8177966
331.6572094
317.47436
323.3905755
303.1998337
280.1493829
292.6126702
311.1901319
313.3148806
291.3951658
293.3331454
309.8372578
292.1220923
291.7496729
292.9810285
292.6151004
310.064096
324.4076066
344.3654207
323.3253024
305.066933
299.9249133
279.9458386
293.0713604
296.1160766
301.2455478
313.3987313
316.0301801
302.0372828
280.7544087
255.1196449
269.5151045
284.3135434
293.5828244
296.36929
301.7531806
305.427617
313.1810887
313.037439
313.0342251
329.8178896
301.2704478
310.3307623
288.0398937
301.1355629
318.5945288
323.826116
324.1902115
315.9084391
310.5293351
320.2139118
306.040149
314.0663325
287.3147169
300.3468904
298.3250339
282.3982314
288.6548285
282.4278696
299.2207453
308.5103727
323.938876
312.974221
304.5634164
288.6907291
304.4641458
298.8690863
297.3376421
312.9273018
315.2538264
309.5950386
288.4596507
308.0963068
319.9989384
304.529527
298.3469976
318.1970811
310.7452871
304.3784174
283.809255
263.315715
256.881378
253.4901003
275.7025658
282.7881896
291.0771774
289.4148493
300.1767364
283.8461125
279.5077828
286.9709866
313.0736066
291.6576729
287.2203842
283.1588635
322.1446244
278.554628
298.9121647
295.7451075
300.3579668
307.6176854
307.8506453
308.6743025
317.5462627
297.8831131
284.8927172
282.4424377
309.774064
297.3624058
280.5311044
274.3849391
267.2965164
284.0857533
306.5270723
321.533992
289.9240487
306.2723507
308.600483
293.6229818
280.7952229
290.4232854
309.5237903
295.6197409
299.7068772
295.2914009
304.2543993
311.7850712
302.1726576
288.3328224
280.3056756
284.6241949
311.0644966
306.4001999
286.0704448
294.7311434
308.4222023
268.2700009
270.9772196
268.0507747
274.9426099
282.8205485
293.79548
295.5369468
300.6983738
289.4615754
292.6516009
294.1806288
311.2242449
301.9678783
294.291154
298.3567965
295.4207377
282.6252685
264.2757645
266.2008397
264.3556712
312.2683867
303.8837026
319.8939706
310.8298932
321.3995629
292.7672716
278.8842268
279.9331746
291.3040202
290.6765566
318.8332359
312.9373426
314.6180062
310.053615
311.2713617
278.6969172
282.4208396
293.897047
311.9325557
325.3973554
315.9944665
305.6160749
307.8429212
274.9870853
262.0973212
277.4018416
282.1360288
270.780139
274.8072462
264.0521848
262.7824508
278.7492169
282.3266764
261.9092086
276.6975488
318.9587745
320.3401339
333.3360883
294.6235325
291.7232742
299.1206444
287.0213786
271.0278679
282.7438869
282.8479519
293.9090019
310.2003949
320.1861136
280.0144849
282.0711579
275.9908126
280.8969511
293.9506014
285.0712226
270.6272513
257.5411422
264.8874667
269.7874345
294.3395163
305.2073976
293.9841201
301.0300547
297.5757686
292.2213234
286.2043082
296.2911545
298.7028957
305.0414272
314.4890162
303.6560103
306.690582
276.326569
289.7038558
306.5273265
297.9250134
297.3716926
300.7471787
319.741817
304.8741551
292.4288614
296.4839083
291.2118844
293.5540496
295.6355189
302.9492336
278.9350632
295.8588966
308.8217443
309.3825283
300.7830684
301.7831236
322.7179645
318.464631
317.0229018
304.9882513
298.8246519
298.54781
291.6372637
281.9972846
281.4722771
308.1282083
302.376365
299.2561082
306.7434121
305.4912107
315.9910566
314.2437167
316.1228017
330.313741
342.094312
346.345246
333.0269323
315.0692318
313.4729622
317.9769734
328.0964605
298.4901278
294.0805607
319.4063042
332.0063547
302.2499328
305.1111662
298.2848369
296.6695673
307.8212767
283.3745629
290.0593562
295.5262609
292.5858141
287.8549205
291.3044024
294.6120038
301.7582187
287.2076981
294.8839992
303.7496367
324.7681104
333.4002222
316.298994
306.3190456
290.8515648
295.2898852
310.7519658
322.9467147
311.9458523
307.655159
322.7376856
341.2772325
314.0370274
304.2735026
306.6938611
297.3704806
301.9236077
307.4778638
289.6005114
285.4235006
297.5303373
294.867509
306.0639679
289.0726191
295.7523678
318.3725777
308.7034648
303.6265749
303.7184549
317.83626
297.5077
311.0069859
314.6589057
294.8165433
291.8186696
301.5008794
320.3932814
332.2939204
338.1085883
325.3188837
323.1072828
319.4523546
297.1487325
297.7968992
296.0038853
292.2398778
290.7785662
292.881476
297.5467022
299.4818038
316.094077
312.8433643
296.8015072
326.0992514
308.1748977
292.3239634
301.9554819
307.3791915
311.6369388
329.8878317
328.1614809
309.9852134
302.8989686
292.52113
309.0360625
292.7191813
310.1133634
331.5334563
301.2880165
295.4746796
281.4107071
303.236693
305.5800068
304.7884022
297.0788764
287.1661954
291.4976089
293.4941364
278.8749705
290.9058867
293.7588131
284.7872156
306.1155716
308.3116312
262.9663543
288.2973546
277.9600668
280.9056097
302.1262518
317.0820139
324.3923429
328.4270836
331.5105681
321.7643805
310.0455619
314.0824065
314.4161375
298.0353796
280.7094586
292.9434957
284.1517791
294.8819587
277.0803254
272.1693663
291.9328175
288.8235814
292.4377046
318.1627678
322.2461035
313.0129454
311.7409005
331.2006706
335.2706415
329.0902863
306.2223783
294.7216035
292.0878137
300.4359422
305.3113654
306.4446625
291.2835773
303.9153141
300.1443286
314.3936542
317.7663208
306.7716186
313.5648965
309.6949673
315.7297234
311.0482833
307.5018903
279.319014
269.6147249
264.8827125
258.4618798
259.4127515
267.7071536
299.6503779
321.7684863
320.3570537
306.0533599
310.5872063
321.3214423
318.6245163
300.2863572
308.0215417
298.7430539
321.6527599
316.3546407
294.8867269
302.7753861
297.0684492
307.6046011
295.2671698
297.3399298
314.4871074
317.875536
315.2078558
306.1728542
303.5928443
317.2855916
309.7952117
295.9785755
277.4814077
284.3386439
294.1807639
318.9813084
332.7335883
321.3129896
319.3921492
327.5732373
323.8702071
318.5917487
312.7470792
334.8904975
315.4375408
329.2569569
307.8648639
317.8087164
306.3422803
292.7549693
305.8126534
302.9710181
296.9687294
311.1105281
332.4177296
310.8668581
299.9227204
305.9589452
292.2873054
288.9538265
284.8393315
318.9533245
320.249778
298.2331317
278.3631219
297.3983048
295.0479478
271.3967379
278.0084714
270.403659
274.5192612
301.436922
310.0404694
285.5310414
266.3016154
261.5762871
273.1650448
282.5111184
295.6881359
314.2006029
298.291777
265.3388842
270.2388931
263.0917376
273.8835134
285.5247711
268.4347813
265.2807181
259.829909
277.5858424
281.4858344
265.5427863
291.2456977
297.9091217
301.8520228
301.1938499
293.47639
323.9965957
314.2755597
300.3320783
298.6715734
282.9937607
289.8385783
304.0699896
292.8193026
290.8971527
292.0476811
308.5810789
297.9628695
284.2802618
286.1508223
297.888084
298.4168183
306.3982172
292.4516529
296.2603893
305.6393282
296.1762876
292.0495266
306.4103194
297.240967
283.3094289
299.1107873
287.5842802
292.2755374
283.0391614
301.4606431
319.1561634
302.3461385
311.8325063
295.9562918
304.35145
304.8187552
299.9042353
321.2528054
322.446433
325.1582336
296.4874493
321.9709101
301.0962801
297.4726609
319.1051768
290.6949054
293.4751106
304.1431786
289.9637455
314.1175131
308.6550628
312.3845783
316.0540114
303.7982346
323.7301571
300.5279412
314.8043357
310.7147996
289.873877
292.8868907
288.0866296
292.825606
295.7717443
280.80923
300.697276
289.9771594
294.0788294
300.6832958
321.8214089
308.9486104
303.2302002
280.133274
284.0974987
315.9065899
311.7017753
317.6423688
281.2683045
285.5063449
296.8164393
297.5544398
289.8279291
288.6876443
281.9950282
307.2980139
309.5233598
306.7329526
303.5212555
304.9063311
284.9166424
270.1572132
279.958731
265.6270184
278.8600303
283.3291625
277.7820047
270.6498197
307.0688056
301.3113619
313.126771
316.9414702
316.7533979
321.0595884
310.1793593
300.618128
296.524218
307.1170584
313.5138502
305.3853312
315.9962007
317.2568943
311.2868143
306.3823901
288.2461364
285.2083227
291.297933
295.3095169
310.0831504
310.6160487
315.3576793
301.9120005
308.3648597
301.4704698
326.5500303
326.3246427
308.9913631
323.0243643
305.0523374
298.6973264
287.8047929
269.6670401
281.6180612
306.5290079
327.221109
320.1473879
312.7608661
327.9971955
290.4963012
261.2891181
260.5448358
286.8478019
279.4741938
286.6475928
283.1088236
278.7721014
312.4915864
305.1004425
305.1527838
285.8253673
273.366849
288.6909068
283.5081874
282.476212
262.9979108
283.8091464
290.0605993
287.3812597
289.0017612
289.4258582
294.8078064
299.9533266
288.2428578
291.6689194
290.354004
281.9267323
263.4820581
272.4672162
292.9762189
314.0734267
295.9555729
288.8739145
314.7110122
309.5826529
291.9708003
299.0081114
297.91363
298.4644767
281.4984397
298.855241
292.9432055
285.458491
286.2733161
289.2614869
298.9969393
294.3395885
284.3043387
296.598683
292.6830003
295.8017517
312.6898258
308.3309194
296.3742072
285.2761303
295.1101818
283.8101774
298.399703
289.7226778
288.9653347
297.3233693
316.8194773
301.0799078
288.5239905
271.3589498
275.969897
272.9564062
265.0165543
280.7874318
261.1532698
273.6000918
283.3120584
285.0628825
300.1891311
310.9279688
311.9884211
306.1505725
298.055884
288.9288977
307.9653131
306.4096972
303.0008555
296.9571099
306.0647811
309.198367
300.8463431
298.2634858
290.2125183
281.0986598
284.9632663
283.8338952
294.1109411
300.7232702
299.1393592
314.6909867
307.1763726
309.9868464
330.1441133
322.8687685
320.8846889
325.6496296
320.2140493
326.450561
306.7058104
320.9520906
314.7366564
312.9710619
308.9783264
305.7838309
307.0839111
299.5125652
281.3722937
302.8462967
303.988807
318.197404
331.8460821
335.1775512
346.2829428
340.4293897
328.8141554
352.2727065
341.2450615
299.1989019
298.3918197
288.4204442
285.1115718
293.7876245
305.1687103
325.5076517