/*--------------------------------*- C++ -*----------------------------------*\
| =========                 |                                                 |
| \\      /  F ield         | OpenFOAM: The Open Source CFD Toolbox           |
|  \\    /   O peration     | Version:  2.4.0-MNF                             |
|   \\  /    A nd           | Web:      www.OpenFOAM.org                      |
|    \\/     M anipulation  |                                                 |
\*---------------------------------------------------------------------------*/
FoamFile
{
    version     2.0;
    format      ascii;
    class       volScalarField;
    location    "0.001";
    object      overallT_mixture;
}
// * * * * * * * * * * * * * * * * * * * * * * * * * * * * * * * * * * * * * //

dimensions      [0 0 0 1 0 0 0];

internalField   nonuniform List<scalar> 
5120
(
304.5552333
299.9157807
304.7171647
303.4790322
305.9814274
302.6299608
308.7905068
310.9488384
299.1498898
299.4135932
311.2470908
306.3994721
317.3132681
315.1879223
323.0882382
314.6191681
306.5460226
308.1797431
296.7923028
298.6494226
302.4297624
301.6913908
306.4445211
310.4262723
301.4015157
306.5570504
316.4284705
321.6590784
313.0657872
309.3105495
309.995323
308.0269554
304.8835708
293.1540765
285.3666255
290.2584747
292.2434031
294.9694812
309.3954225
303.4132282
326.4062385
323.8602703
317.3029611
310.4278304
313.644813
309.8172401
313.4990607
313.9296496
314.282847
311.4261081
316.7565749
310.8997105
305.1477615
298.6236034
302.7398332
298.6269378
301.4235699
314.7946272
322.2693187
326.4045357
287.4770635
299.7617151
305.7215767
311.9793399
305.9025739
296.1873633
301.2962695
293.7492923
296.3573032
306.5356869
305.8011632
307.1067215
310.7567395
301.7348889
305.2811846
293.418449
300.2180138
300.9811121
298.9812995
290.6049408
302.1204306
301.2245812
300.6297708
291.8637376
297.9561664
313.8488141
313.2598472
305.509997
306.8926743
307.9608214
306.4350027
302.2806131
296.6257425
300.7241321
299.5941547
302.1604751
304.009121
317.2907843
311.5928701
306.5367707
304.9540427
305.5422064
313.1413493
324.3511501
315.5887647
301.5946859
309.027887
304.2104553
301.5484731
299.5467661
301.6362281
296.6856053
290.2466761
293.2078343
305.1146415
310.4484835
310.5133306
299.6620316
305.8518362
314.3931957
304.8597167
300.6151159
306.2857013
311.8858489
312.6584383
308.0169746
300.0680744
299.9133122
298.7136355
308.7721892
313.0614862
313.9805836
309.7982366
299.0761276
300.2529944
303.6520851
298.5420625
316.1685329
310.0690751
306.8342725
305.190271
301.0972868
296.1746488
298.2946563
301.1785513
299.3031647
302.0718529
296.0571224
297.1700245
300.9813668
300.4703743
301.631313
299.9959242
298.644692
296.8911943
298.4645905
304.1895192
294.7331743
302.1597995
299.5668122
289.7889975
291.0188119
282.582277
282.548519
294.0320587
297.3237653
315.8631884
326.9339445
324.4094869
312.3201907
319.4037329
320.6147081
309.3664006
301.8071035
309.9457379
304.0798447
300.5874761
301.0016672
299.5544926
296.5149488
294.5286893
292.5463274
293.4515325
289.1935449
296.3925712
297.0314964
296.9634284
294.9724181
290.9114657
301.8200866
295.9071114
289.4027059
298.5684585
295.1011542
287.6551839
290.4581817
301.4614594
295.3854885
294.6973957
287.0483835
293.1527311
296.1329634
297.676903
287.9053613
286.3282665
294.0691473
290.8065536
294.1228721
289.3403349
298.9794303
301.4162621
290.7891029
283.8231795
293.2923481
306.1972891
312.210969
287.1360546
292.5829062
288.5742988
294.9916775
302.8214216
297.0449632
288.5689197
282.7798443
291.6541053
293.5439221
292.7760559
295.2345702
293.4506848
285.8074519
279.3632841
278.2762862
273.7632269
275.2897392
289.0599802
286.6904043
300.9609655
293.0317607
297.0206374
302.8749347
287.8289287
295.2100387
297.1966775
301.7634077
299.6305492
300.9586337
297.0565234
300.8172491
296.9049456
299.9054216
288.9143611
294.6103037
302.9691306
299.6470033
289.453518
289.0343968
282.3431514
283.1177862
287.7953307
290.6645037
302.9289726
303.3640312
297.1260645
300.7090019
308.1806721
309.6630691
313.6676525
308.1009948
309.4508584
299.0498001
301.1704586
288.8621719
290.7761875
291.3770503
290.5361138
296.4636147
296.7031529
299.4623002
288.3616995
295.865619
303.0884229
298.8267643
288.430696
281.6627112
300.9607135
294.3554801
287.810416
291.0613223
304.3779257
308.3669693
300.5597405
303.2182741
293.033161
303.3196336
305.9813948
298.9961119
302.2068816
303.0123871
305.0106302
297.7221839
301.7589513
307.8222784
302.2148132
314.4929541
304.3301682
297.0145379
293.961002
300.1046977
306.9001448
297.2395574
302.0115015
293.2713387
302.0126297
304.6119421
298.7812618
300.227802
299.8795022
303.2338107
301.327729
300.335437
297.0851571
295.8212733
294.3251737
303.0005184
298.0447791
306.2100701
305.0385509
294.3697277
296.1878152
292.4451434
292.5126916
300.083148
291.6610805
299.6734958
296.8318447
301.3858804
302.3955502
297.0505181
303.4094174
299.5093379
293.0934156
299.08174
302.6558365
295.119744
301.1698774
299.4547955
297.1314777
296.0833658
298.6086229
299.7645806
299.606725
303.9977199
306.8029191
303.4573199
304.8222671
308.3079588
306.3248928
300.1418216
300.913213
296.8115355
292.3666256
295.5327679
290.2984139
300.2540879
303.7429678
302.6105823
307.3249848
301.8275703
304.4689572
307.4643126
297.9633824
297.9109327
293.0792619
292.7741475
296.872153
298.1566258
303.4750299
303.6765914
297.9173305
293.8546084
302.397552
306.8071793
302.942136
295.2216837
298.1343893
301.4005482
315.1003308
317.0493679
304.1771658
298.7452764
291.2385722
288.763974
297.0053082
304.8326265
300.8021446
298.8700102
289.9054655
289.9634287
291.9201288
300.4939592
298.3757006
294.5656841
296.5410431
302.0567977
301.1703189
306.5726043
298.1919553
297.3047585
303.5092308
296.410116
290.9669481
279.9714751
288.6414591
288.7808302
290.6885997
287.9069434
297.3521894
284.4716728
288.6471427
298.6643538
310.6769327
307.3106137
306.2991807
300.4366072
305.7142177
302.2100598
301.1790315
290.1478551
295.8139354
301.7174641
300.7829283
297.0242994
292.4213263
295.0465137
289.4251962
295.3986426
298.0203888
292.7168728
288.5854754
294.6906662
308.5669853
309.7528108
302.859395
288.3863056
288.5912526
297.47456
302.1988961
296.5335454
295.313138
295.0608156
289.9474259
306.2335373
316.6155796
307.144363
305.1094282
300.5336942
310.3516237
305.2636411
300.1202386
306.4746281
285.8987401
301.1880191
305.3641945
311.4157576
307.6497479
306.4399075
298.3780592
302.9699868
308.4346597
304.7969394
311.8087356
307.0422429
298.7665998
308.1245375
312.9599635
315.014305
307.0346378
306.6769679
287.1226692
283.7283919
309.6556237
295.3161471
311.2167035
312.3348428
309.1920319
307.1789417
321.7537815
308.8182616
315.7324619
317.0271314
305.2769037
304.2105128
312.4910645
305.5291899
296.759463
297.3122499
289.7496938
292.102797
304.0022133
308.49479
293.5699181
291.7272253
295.5461475
297.4796065
302.2265857
302.9151346
297.720784
305.725076
309.7513677
302.0091577
306.3144313
306.61172
307.1096397
311.6311113
306.2828158
288.7843839
283.5811958
284.2422908
288.1378872
295.9664444
299.6762863
303.129854
298.5412828
307.3149057
306.5573785
299.5074958
305.1409478
298.6009879
304.6785637
299.9555458
306.897423
303.8130549
322.1673854
313.1605667
303.7955743
299.295281
310.0998167
306.7584767
303.4021328
299.7087914
297.828307
292.397244
288.6007015
280.072714
283.3744866
290.2035739
300.3282647
297.5890256
301.598628
308.2843758
311.0142858
309.6934465
310.7262946
299.5586636
293.8944759
297.7069197
301.0789822
308.1302486
297.3509932
301.2142513
278.2707511
280.4007156
289.2602565
294.1828022
294.2243307
292.2453416
292.935721
285.43717
297.7223062
302.9914299
300.5626381
299.8760537
305.05747
298.0137465
289.5783662
278.0882295
281.4933696
288.0778047
281.5244637
277.8769749
296.1097877
300.8849168
296.7229552
294.289664
296.3690578
306.2153535
305.5049976
304.1402719
293.9940173
291.6275917
305.2359444
310.5317878
294.4534386
299.0685937
299.5856423
300.0639729
309.588761
303.5883087
302.5760329
304.883513
310.1919154
303.2720355
308.8913293
305.5493743
302.6628559
303.7341756
310.8642899
313.1913103
311.2045318
307.9936546
302.7928719
295.1603132
300.8188239
296.7220676
289.0826151
296.5551284
294.9980903
299.4635505
299.8506913
304.6753413
308.3007925
305.4528736
306.3096749
299.4319025
299.0953544
294.924842
294.9279139
292.3926232
295.290808
301.8879656
306.4621621
312.5746516
313.3910754
301.0159211
311.7860313
310.5252503
309.6955227
307.0844605
311.4539443
309.510691
305.1182436
296.9378089
299.2835252
305.4968358
304.0716969
301.456441
296.2831498
284.6213345
285.7389275
288.0253428
292.621755
304.37957
299.9817674
296.8496474
305.9898608
301.3944187
299.0931371
311.5713502
307.9263442
308.9368518
315.6453003
314.2520551
321.7923699
302.0139419
304.8120773
311.89856
323.7103698
318.0538191
307.0746273
299.5444986
299.8382116
299.5940859
312.5571641
313.9163073
298.083835
294.9329326
305.8240523
301.7275786
305.8952082
315.8045943
309.8078401
308.7764257
305.3305774
309.9619139
312.9717249
309.1972399
298.4829003
315.6347792
313.5489703
301.3445816
301.6552652
298.4847766
297.5246858
294.1857879
305.7191033
300.1619309
295.584303
288.1531433
296.03892
304.6300277
294.1868001
298.816115
307.167848
303.6471465
302.6450476
302.5924521
306.2673014
304.9563909
301.7054245
311.720586
316.2536055
313.4812466
316.6885543
317.7847583
315.3375032
315.4362596
319.127889
313.6078037
304.9411707
301.2607249
301.9069057
298.8924702
298.2332217
306.288907
305.2481688
303.2540965
309.4975423
303.9960742
297.1600757
295.1692564
292.7090969
289.2771795
296.1698612
296.9671961
307.5335899
311.3300606
308.7427358
309.4887489
304.8068821
308.2291366
291.4112039
298.3101566
296.9893952
291.7752511
292.5313057
289.3380806
293.1613459
298.581537
292.0596006
282.7578843
287.865403
297.6801558
297.4028181
298.3704245
293.9714727
292.3827013
295.0235152
303.9319997
301.1247156
289.7518879
306.5524197
291.2500495
287.7792294
296.8590244
293.354377
286.8871927
280.3515583
282.0610336
283.3467976
285.8369178
288.9421882
290.1722643
286.2558951
289.0232564
284.3860713
298.06411
291.7082062
290.9970124
294.1348989
296.2793305
283.0229303
284.4175286
282.739156
278.7083991
281.7390113
293.3485852
295.9595904
292.6691179
293.7291254
290.8123643
291.1661922
295.0560432
304.1421034
297.9794095
307.6372226
290.7378126
284.9913116
287.9886405
281.0540745
285.13556
311.4959028
312.7656853
311.2072823
303.1094711
298.6284032
294.7654384
295.9018857
297.6058318
299.4318951
293.9311482
294.683816
304.7056614
301.9038069
306.9487008
292.437599
299.6007365
305.6733374
308.3886757
310.0729668
307.6140923
300.0761428
301.9378381
304.0773587
303.3001736
303.2917872
295.5132071
298.3924231
286.491908
285.5248642
299.6822759
296.0815771
289.4029976
286.8515665
290.1149644
298.7276515
299.9449514
293.7828214
292.6045028
301.8343913
308.3566524
300.6340752
291.6301228
301.1942136
297.8583137
292.3821823
289.1958954
298.2092714
302.2273205
294.7747571
295.9100968
291.6039547
291.4308239
288.5894807
300.9045478
303.9094715
312.5128872
300.7237061
306.8530087
294.8134732
291.1866412
304.6382302
306.7165655
309.7492626
308.6517939
304.0880124
298.3258816
297.2162122
302.5148515
300.7239794
295.3617796
298.5817686
298.8581477
304.8529973
316.9718319
317.6605217
315.3524833
308.6498463
299.2987198
307.6204256
305.389404
301.8923492
296.7019425
292.8974987
294.8010659
288.1659892
281.3271379
275.6367621
287.824313
280.3519475
284.2141617
287.4963407
297.1003377
294.1195685
294.9227894
296.4069433
290.7973951
289.7289706
294.9107279
291.2344976
296.1529624
289.4315304
287.4652353
290.7459165
297.6497788
288.6543828
287.6207677
287.6134527
296.8761601
299.5930027
293.0176807
293.9117093
290.5653874
299.9721395
296.6577075
296.6207019
298.9035638
296.9442325
291.9002605
292.3347789
292.8197281
289.1969577
293.0322824
302.5279019
293.3486324
293.2119947
297.1933081
303.090657
291.8899748
298.0276304
306.3977339
311.4033733
307.3044154
299.9089549
301.7593974
308.7232337
309.7487966
315.397115
309.9737711
307.640963
297.2189268
302.168451
300.4363124
305.100088
311.3739158
307.2236963
305.7078852
306.6704744
309.9084734
308.8695236
305.0407924
302.3307302
302.6837452
305.870054
318.9985163
314.9604049
306.1846334
301.8989602
299.077056
301.2292466
296.9257441
296.4475324
294.8628505
295.2736
288.1253222
288.4422006
299.7552849
300.6514945
301.2011346
303.1639836
295.1457922
301.7951086
311.0761051
307.6838381
302.6057556
298.0303773
297.4344917
304.6560779
309.3089555
313.4892198
304.7438599
296.8410203
307.9900354
298.2149172
307.7705096
306.2608848
302.006776
302.1553063
299.0775452
302.8697542
312.3634959
304.0377571
303.6164731
301.461317
295.4196818
298.2081189
302.8273233
296.444307
300.8962838
294.1166259
289.5217186
307.452505
307.2510585
314.1635219
312.5999701
308.982003
307.3430226
309.1423621
311.4853294
320.3858048
319.2719223
319.8358466
309.9498089
308.1567723
307.5403124
304.2524499
301.6815545
297.9605534
296.5656373
295.3860902
304.8458288
287.9802392
287.248345
294.3838445
294.4669211
297.4244738
296.8665589
309.1355633
304.7789015
292.9618928
297.1249862
299.1594177
305.3442219
307.2344943
305.3875983
297.993237
296.6364504
314.4422373
307.303639
296.2566779
279.5136432
301.2483795
294.9881818
292.3464386
296.598106
292.0168492
299.3854571
296.4995347
304.0325219
311.354596
311.646329
305.810891
302.808873
306.9794534
307.5851888
314.7906636
301.7135457
293.1819522
293.0736412
302.9712788
300.5761683
282.5949573
292.2683372
291.5980301
295.3536679
302.3883772
313.4939545
315.7558134
307.0647284
297.1022185
290.6173196
292.8406768
296.4645466
300.5448008
302.5079395
295.0082119
296.1657004
298.6490251
302.6641048
305.7618437
291.8877338
308.5649762
310.0674169
304.1060908
293.6157617
289.3481711
292.1287181
301.2256464
298.5532993
310.5853295
306.127519
303.9640871
313.8224501
309.7922292
305.4847772
303.3847561
300.6865115
311.265839
306.1154652
309.7227111
315.5164693
285.2025815
289.7028198
298.1902734
297.3227753
307.983322
308.5783097
306.687997
303.5430902
297.4942349
299.297804
300.9686613
299.8711256
291.3417133
292.2761588
286.5676052
295.3316768
291.9926124
288.181054
294.8509964
289.8717512
306.5783146
302.3451185
311.8438994
310.8322801
298.0861343
293.2806766
285.2956554
298.0091266
296.4969654
309.2871627
314.0629517
304.5601136
305.4957146
310.0617891
307.5174799
308.7094757
295.3925996
301.2564588
307.6102835
323.0093028
310.1974365
305.6025206
292.1955182
290.7564949
284.9990976
296.8675167
305.0489913
309.5172154
296.4236198
289.4388796
284.3175012
303.9839477
308.6761669
301.9971921
299.155871
295.1607222
298.8156615
305.9748437
305.1007412
303.7132239
313.3715173
310.0928969
304.1766947
298.926918
291.1017816
291.4181304
275.0186315
281.9455924
292.2477122
303.8992734
300.0138012
303.6948693
302.3059117
306.6324326
309.8706519
306.6325238
311.1437429
299.1539302
304.5638228
307.1165062
284.9111903
295.2481341
304.0118545
300.8545534
299.8252946
299.063214
296.8450715
303.4955141
300.0891741
297.9401959
301.1059129
291.4828838
293.3990515
297.7917562
303.8620011
302.8674337
306.1975658
314.854803
303.3119107
292.8501209
302.1490032
301.4324478
314.2110992
313.1732175
309.5939981
310.0088922
312.921443
297.7899366
305.8971573
304.1884672
302.7829428
300.2919749
303.8058585
299.4518871
299.1036252
306.6935716
313.8619965
304.9732415
301.5143848
307.5497765
316.9517271
297.599238
301.1510591
298.6559203
300.0578175
313.073909
296.3444114
297.6822581
299.30406
298.9560418
302.4451517
301.8042375
305.9591328
305.4307881
304.6040117
292.7555918
295.072252
302.9826378
305.6812258
313.3310286
308.0567685
311.2195429
299.0818826
306.6998018
302.9392789
293.1340925
288.7998206
292.620422
284.1347288
293.1703439
283.794003
285.0107039
283.4515
298.7743365
303.4751164
304.9607069
303.1245563
300.7253642
296.0817219
299.0004675
299.51012
304.7273944
293.156359
290.7201563
284.7803157
283.4143117
289.6322898
288.4577599
303.5878831
301.2296873
306.6034626
304.2348839
306.3291449
296.2871716
301.2399275
301.7123641
305.5130365
309.2084921
308.1564999
305.8350523
292.6656224
295.8467684
295.6870695
293.1618729
283.6158061
279.787801
287.4450528
296.6091586
297.2750264
306.2169493
303.8141994
306.0384661
301.6064741
300.1099459
302.0291346
296.335566
304.1528516
298.496169
299.0973468
296.728477
300.4013906
293.4643444
299.141762
294.9288569
305.5899646
296.5709498
303.3072065
309.9903745
316.6785657
305.126416
303.4984775
299.5093868
302.6307834
306.1930014
299.1279259
296.2948984
305.226565
307.5265788
299.7073301
302.6498118
307.9305012
296.9020604
291.8273678
299.8601979
307.5520857
305.9034594
300.9093421
303.9908642
297.0233869
304.2460616
307.8185949
306.413508
306.3858977
304.0033411
310.8250088
311.2648405
310.1390016
305.4318556
310.057153
310.7469217
312.233717
308.1422577
305.5678353
302.0623414
307.6182928
318.9490719
302.2033326
297.8299962
304.0929202
300.6238943
303.6432427
301.0493155
309.2137675
310.3622915
306.2323312
302.9070591
306.0079038
314.6293134
308.5274602
310.9945337
287.8943913
304.7865354
306.5426346
309.3492552
306.7189065
284.5177448
284.2717419
290.8620227
294.2788408
300.0763892
290.7992508
296.6936761
290.0753355
284.9861992
289.3862061
295.3849919
296.6185565
294.0384384
287.3780751
287.653038
307.1461351
304.6590572
306.5484809
308.1152628
315.702278
307.162495
295.6122132
302.7754097
307.5057707
306.8077712
303.7764267
295.8487021
301.716871
308.3574552
305.9843263
301.9681313
301.3821457
300.0559077
291.9936121
301.3461304
303.8926292
291.2007157
296.60753
295.7822344
289.2060815
309.323985
312.8251039
308.5645323
304.5103833
313.4870103
312.1851229
304.6399709
303.427221
298.3202065
291.0533481
285.9669429
292.3243702
295.7335776
298.6228296
304.9628098
289.2443832
290.1917815
292.6689526
289.1814346
302.8154434
294.243111
294.7970354
303.6866999
302.2212316
288.9231414
296.7869101
298.4390574
302.6975167
307.645603
300.8298456
294.3441885
296.3924946
303.6094881
297.1304574
296.1722146
299.6999232
304.0274245
312.7222855
311.5354122
313.0651103
312.219782
301.0413446
298.6976228
296.4816077
297.136418
296.6297806
291.3097725
297.2376342
299.9338998
298.2108142
301.6281655
305.318476
294.1700181
296.3807214
290.3452251
288.0728623
292.9597219
294.5699714
286.989026
285.0745527
281.0978091
281.1244335
288.3195028
288.8098408
286.7673826
287.4396762
288.4536727
284.5779888
281.8581446
296.2595523
301.777552
297.5350397
294.8439902
290.766346
289.6874177
304.4693123
299.6083702
293.0128597
296.4914586
305.5542906
304.4276738
303.718491
292.2453365
287.8568721
288.0156944
289.3859888
290.6276667
288.2517892
291.8753075
296.3602401
301.5930084
315.8182495
313.46316
306.4701103
297.9180523
307.4409851
308.5347288
299.6555858
299.3504268
295.4453746
299.4834172
297.933401
295.7390778
292.612467
292.170842
298.5347255
297.9152003
295.6712036
291.5327805
294.6722671
289.7066857
282.4801536
299.4241868
294.2537491
307.0217061
283.2875766
294.2050406
297.7474893
304.3319811
306.7498081
305.2899716
304.9149063
300.1947003
300.4551951
294.4350083
290.7876083
282.8689081
290.0764567
290.9285407
287.3163267
288.8412224
295.4303599
293.8929116
289.6275767
278.5378664
300.7421917
303.2611531
309.6901531
305.2663583
304.9343251
296.7527634
299.5187227
300.1609069
297.1947085
301.5080128
291.3046123
300.6901304
299.1563346
302.7840284
301.2710109
301.2319556
293.8429223
297.491892
298.061624
302.5190711
287.2428181
291.5273279
292.7964747
289.369843
289.1435693
293.1395068
294.8462368
290.5109332
295.4647904
290.7357787
306.2552107
306.4127011
294.8609848
284.4109802
285.6456577
296.9192398
296.6644503
287.1747503
293.7670794
298.8401628
301.7876796
286.3506551
290.1052906
305.1078192
299.2738957
304.9613784
306.0067052
308.923121
302.2512987
307.0011557
307.1739016
301.9809833
307.1109158
301.2118927
310.5846697
303.8369016
300.8773616
297.4746411
294.4602023
298.2507716
295.2117133
308.2953594
309.2213638
310.0657322
303.9270995
301.4990472
308.2918214
300.1013337
300.2465591
296.4530689
295.0655317
296.2143613
291.9774167
286.2474808
288.5993127
295.6973087
295.7015242
300.3112217
297.4362081
296.0026811
299.6506323
304.6832063
302.0442358
311.0898572
313.0737604
314.8319608
295.8596808
303.8189758
312.0523413
318.1504434
310.8595509
306.7462537
290.6429612
293.4778997
293.2720052
292.5051803
292.6874001
287.3675861
289.7888618
300.9489695
295.4911142
294.2683123
300.5679166
300.0704763
305.3180022
302.2616817
317.9396187
314.5868188
315.2930083
298.7052798
304.1703756
308.9618105
308.3896129
303.7220799
308.8934026
298.7761977
301.314017
300.8671152
307.9323977
308.0088956
310.1297027
321.0158716
322.8374051
312.1325528
313.4224628
312.8123141
314.5602902
315.7737667
298.8060169
293.3478662
305.7687616
305.4538809
307.4630749
309.0545328
306.2014273
315.5341338
303.2644643
299.1594424
305.9650699
311.3768151
295.1835493
297.2081551
303.185967
309.1409359
303.3634649
308.9715461
303.5804974
291.752651
297.4294083
306.568355
311.5120508
305.7453483
312.8527754
306.4379939
295.9618986
297.2456863
302.9954327
302.2406991
289.5995335
289.4230062
297.3198196
304.8164989
304.4238209
300.2672747
297.5566667
287.9241741
302.9216886
309.9739091
306.1668957
314.4318497
319.1958651
317.4240121
310.8994017
310.6956877
321.5923558
319.5819805
313.4708913
304.415899
302.0369719
295.2797541
281.1980855
285.2192181
282.9946578
294.8395862
299.2192582
302.4987476
305.0462778
304.0432135
307.9485316
308.7407253
303.5019637
303.6639318
304.3508878
301.9451635
302.8406212
295.6563751
303.2924594
302.9665064
294.783466
290.8860722
312.3233706
312.375789
296.6349474
288.9522985
275.6098217
273.2714867
273.0587349
279.2681403
282.8044304
291.2840956
292.571843
299.4355632
301.4942336
308.265316
299.0713029
307.2686584
301.6770605
305.6616146
299.974339
312.694458
306.1814898
304.822259
307.8345534
305.8360736
307.1679065
304.6425059
307.4369229
303.595646
305.785387
301.6717937
293.1589608
292.6437875
287.8907016
291.8274221
301.8271199
294.1897158
299.9720595
305.086549
315.4336828
309.5989278
302.024306
311.7460877
297.7746691
298.7052683
293.8830683
295.8037962
299.2300269
296.6693966
298.639074
306.400646
307.0267896
302.8131392
306.070895
296.2418626
285.9631512
284.6627601
287.848355
290.0489749
286.774511
304.5944152
285.7191717
287.3703227
291.493765
284.4500054
290.1828004
297.7718217
295.7779508
293.5614349
287.2329693
281.2536611
287.1304627
291.6738262
289.5577536
292.9836968
298.8192347
303.5053214
298.3109692
297.2364794
294.6399355
284.4730707
302.3501321
299.6286346
307.447102
303.6924628
303.0322026
293.1476954
291.0179762
293.4571275
296.1698846
291.2954678
299.977545
299.5951922
301.2046696
305.176961
302.940421
290.7429504
295.4414295
290.9926162
298.7022846
301.7554232
303.531322
292.2476185
284.370121
279.5495204
286.7917608
297.0985514
290.8998961
282.4857267
275.3587871
277.811197
292.3326602
290.4267649
286.4559476
279.2016807
287.3305746
305.9230197
305.0030766
303.0538487
292.6940503
298.4959394
298.0373001
298.7226795
289.0707505
296.010255
284.3805661
281.8878731
293.7768497
288.8750367
287.4017268
289.4552912
287.7936854
294.0541528
300.4579561
300.9826143
296.4813192
289.3210396
296.5791781
296.6187358
296.2647101
303.5762001
314.4747152
319.1492839
304.1215684
301.311193
308.2726882
307.0730615
300.1042049
291.836603
291.118014
296.4720994
298.1229182
295.0998049
298.4465178
307.9329214
302.3345549
297.6851515
300.9200691
309.9090654
310.6765022
307.0803492
295.9581093
302.5675826
299.7490568
297.6671294
301.5498009
295.6050669
297.8836854
294.7207291
282.7345246
287.4217643
285.9844984
299.6879145
297.8779621
301.003239
296.3181933
292.0968204
287.0152397
297.9387549
297.4913671
295.0045863
305.8194214
297.8797415
293.7259891
301.5706945
295.8850508
297.0536263
297.6105069
294.393881
294.1045636
307.8246947
304.6954388
307.0448416
316.2295143
314.4377669
311.3014205
315.0741935
311.5070741
297.8456131
305.3885016
309.5472535
311.9819288
311.7899797
308.1113409
301.4406947
305.9560698
293.933106
299.5065476
302.0059611
298.8628864
291.1860519
285.8274326
289.1712631
302.650776
309.4913256
304.532598
308.2038088
304.8323997
312.329552
306.3895124
299.3220423
307.1467596
314.8648905
313.7608172
305.4729692
307.7757788
313.1174635
317.3830532
320.7208667
303.4636997
310.4876367
309.0956032
308.5542639
301.3956186
307.9429918
310.0515964
321.4028358
324.9863862
315.3082088
323.8777058
305.9504544
318.6813783
318.7216333
309.0488532
307.7020994
298.5266811
299.6061059
287.6407345
295.0851945
306.3138846
300.6061707
298.2321364
292.4220709
301.4474118
309.0478214
318.2301756
305.8016718
311.9788526
316.1655385
310.2814457
316.8042199
309.8707551
305.2276165
304.9069647
307.8517575
307.4742131
308.9310498
314.3119863
309.6551256
300.7149028
294.4755224
296.630136
299.8121257
298.4896308
306.2530515
311.7140719
303.9290955
312.5353171
307.6245159
309.6024746
302.5381046
297.0397464
292.3563228
296.2083569
300.171764
299.9306591
294.9326979
284.1861069
290.6670164
296.235961
299.4844796
298.1779173
307.0188544
306.3915033
303.3112408
302.9036725
307.813363
296.9020515
292.9752309
299.307164
304.4329531
294.823314
298.5766992
290.3030158
287.9366648
294.3656039
299.4463218
303.9625696
303.8094218
307.6554167
314.4287573
316.9720638
315.2623518
314.2674181
303.8937372
292.7761058
293.8791004
295.3191737
302.1822549
291.9925676
296.2912942
292.3901191
285.1282104
288.9714054
282.746892
284.316259
289.8868352
284.6624691
296.7961029
303.1439759
296.6180298
293.4524304
289.4088983
285.2994382
286.2322218
294.368466
289.1116823
290.3736763
296.236835
297.459992
299.0878715
292.5941576
286.5438655
289.0850943
294.8216808
298.3669458
297.1153234
294.3778779
287.5403334
283.9364984
284.6981151
286.7575773
290.116182
290.985939
297.1835073
300.903182
301.1137144
293.5742258
291.0203113
284.6597117
291.2390173
303.6645754
303.0801808
299.2898911
302.9742524
299.0434548
293.02572
293.1993258
291.5694364
295.3225077
297.0505732
299.6237601
303.8298245
300.7762975
299.7288297
291.8454696
287.8003461
294.9507034
289.3814223
295.4858172
292.9297362
297.6318889
306.9487861
305.9975225
311.0539473
309.6130687
310.3729273
313.4994882
306.9035535
303.6969849
303.5404223
302.4462545
302.9665346
312.3700866
299.8578286
291.6416279
302.4716845
306.6129655
310.0589065
310.2885239
301.9219219
295.29559
308.435128
312.4526379
308.9920724
307.8950535
302.99774
305.325316
309.0196208
319.0323266
318.7291909
299.2024925
299.5104569
301.4532653
290.4586033
286.8106159
288.3963033
290.9524802
287.5362918
296.2697502
294.6298184
307.2379379
292.7132925
293.344369
298.2830549
299.4123696
300.5523181
301.9788799
302.2943759
296.9876766
291.4117027
280.9187588
285.2609949
282.05975
281.5492926
276.3622872
280.1329118
290.2834491
294.6532381
287.8077942
300.2646256
311.034749
303.8913127
299.9332078
302.2831589
307.2582531
304.8633987
296.5156885
292.8085197
289.3319219
295.6666814
298.5850567
289.7212427
296.6099004
291.5875706
295.8089239
296.696794
285.1434119
301.8139261
306.0996874
312.7076181
304.7777778
314.4814382
323.1094394
315.6929171
307.4668698
302.258774
309.3440507
303.3538034
306.5444852
304.1076018
302.0071873
302.6698472
301.696929
298.2968478
301.6401484
295.3632108
295.2431529
290.9618174
296.0952342
297.5544666
299.1621681
293.2221158
286.77814
289.9401866
288.9905377
302.7879909
304.0650711
314.7870871
313.1911028
300.6163704
302.4858807
301.0491429
292.5276683
303.2833694
308.3685987
307.885076
298.7241555
300.4634825
305.2085169
300.720214
302.6971518
291.8216324
292.1750331
292.9718629
295.8903326
300.1599275
306.3224676
294.8371071
297.5968254
302.7124799
301.2187703
305.7145593
303.2810163
307.2395466
302.5800804
298.7332149
304.3951104
305.1404267
305.1306054
301.9127859
298.5232739
296.9548638
296.0618294
298.4019218
294.5662499
296.7471232
292.631563
299.7899853
306.0292353
310.8591288
305.909418
312.4682738
298.8426382
290.5329132
290.6911982
285.5238166
286.5187133
285.8292068
281.9496735
291.677151
303.8654848
299.9903581
300.9157973
303.5988698
311.1026075
314.8255567
304.3890315
310.44973
310.9930911
310.0871037
309.9454759
317.8975373
314.6157763
305.8839846
300.9646561
304.5559026
301.8063959
300.4249694
303.4555933
309.7781177
320.9022022
324.3914266
321.7454594
320.480202
310.750493
303.8035848
313.9810099
315.2470767
304.2935937
312.6572561
310.0513896
298.7182111
302.5358533
302.5586767
300.8011163
303.1518178
307.6083246
306.974732
305.599442
322.7664243
304.8988929
296.3409852
299.3087325
305.9699342
300.2180472
298.5233402
293.0335811
293.1636622
297.6047179
296.8385274
294.8271796
287.9914689
291.6197157
302.4566918
307.562786
315.0778954
316.7015641
320.8396521
321.7739676
314.2995785
295.3038332
296.231469
307.053737
305.5433697
302.1194699
297.6873517
299.9752184
294.769115
291.3259663
284.670689
291.9646754
301.6526193
301.635745
301.9330995
289.4533474
295.5456581
296.605686
297.7400092
297.2431328
295.464294
294.0674812
301.5694366
298.4505672
287.4899311
295.7620496
297.3727878
305.6180719
308.3594947
293.6221329
287.2398013
285.9379574
288.1945407
299.6917437
298.9111251
298.529205
291.9813603
299.3472031
295.2612021
305.1977493
297.9503563
295.6840522
292.0677541
289.7477062
287.7522995
283.9787768
279.4153961
284.5133467
287.3063796
286.0130596
295.3837234
290.7386223
303.4301638
303.5704327
308.3353791
312.5188521
306.4884022
295.0866645
294.8310418
288.3169351
289.8546411
298.0927483
293.5809788
294.6592044
303.4621501
307.3461382
303.1503669
297.7645678
289.6585886
290.8101484
285.9741778
286.6062899
293.3695669
298.4208071
293.3335915
285.3338467
297.765014
303.0385496
296.6413045
303.3829103
301.304568
304.7375843
305.8944792
309.3140339
304.9316437
301.9149075
302.321814
298.7067263
293.9102481
296.3514069
297.4963928
302.3563592
301.5229314
288.4045455
297.2257583
307.2123009
302.9873501
303.849551
299.2640184
306.0663317
301.9011139
311.7927796
314.2417667
308.2844969
305.4155947
304.0392837
304.2968608
301.4979982
297.2204973
298.8751956
298.6432887