/*--------------------------------*- C++ -*----------------------------------*\
| =========                 |                                                 |
| \\      /  F ield         | OpenFOAM: The Open Source CFD Toolbox           |
|  \\    /   O peration     | Version:  2.4.0-MNF                             |
|   \\  /    A nd           | Web:      www.OpenFOAM.org                      |
|    \\/     M anipulation  |                                                 |
\*---------------------------------------------------------------------------*/
FoamFile
{
    version     2.0;
    format      ascii;
    class       volScalarField;
    location    "0.001";
    object      overallT_N2;
}
// * * * * * * * * * * * * * * * * * * * * * * * * * * * * * * * * * * * * * //

dimensions      [0 0 0 1 0 0 0];

internalField   nonuniform List<scalar> 
5120
(
310.5787959
302.7539099
301.2825594
302.616171
308.1972178
307.3147639
316.0144237
312.4710971
304.5229494
300.1573162
312.3550957
307.3795104
320.5260375
316.075974
318.1433079
314.8810051
306.3972644
308.0584539
299.1903507
301.3102311
310.7497684
314.5379818
315.2872782
319.4579085
308.7476409
308.5681686
320.817941
327.2372808
316.9239394
313.4675539
311.9301994
308.7060248
299.8662072
291.8896575
286.4450098
294.9104768
302.6342553
305.245778
313.6416094
318.1425931
322.9927025
322.3002461
317.2343425
309.0887265
315.7144387
311.9186982
313.5677751
315.5763468
314.4372973
313.5878008
322.1764763
319.9035686
320.5108312
310.2268787
306.7959847
303.0057647
299.8135156
315.9082643
324.3077273
325.6261914
283.8842748
290.4484408
303.1749083
307.0935474
300.7035173
290.7385454
302.1059233
289.6332659
290.6480401
302.9801933
302.0926387
299.4821029
299.9700233
296.1559468
303.3909444
292.8470135
302.8834493
303.7673613
301.2093383
290.7006078
305.1124869
304.0827613
303.9705204
297.8408982
306.0065127
320.9843963
308.3079783
299.244287
303.9443015
307.8405405
303.0724867
299.9995817
297.741009
300.9996694
300.2914489
302.0426944
307.7392328
320.4616346
307.3723707
303.1786111
295.4444379
300.1330927
310.5077767
321.7482068
313.0642052
300.5359591
311.1352443
304.4906438
301.8923828
298.1794939
303.6244678
297.218675
292.88219
294.9922205
303.353715
309.4031572
311.6301617
297.9910636
301.0895783
306.018612
306.6505534
303.4796483
305.8969884
310.4706944
314.4107204
313.8407072
298.8103691
302.4303978
298.6643378
304.3474649
310.6207924
308.7985394
303.5987418
297.269457
304.2804939
304.2184799
297.0286276
316.7916413
313.503134
306.8346583
311.9974632
301.4549519
294.1431924
297.5711128
302.5317021
304.7041601
303.1574613
296.080894
299.2173888
303.2277099
302.9710255
297.5850953
299.4199456
298.554259
297.2331718
298.4229214
306.2076107
297.9558459
308.524318
306.2486749
294.4194169
293.7797792
290.0455874
285.6871174
295.7025849
303.1811866
319.1495586
328.5224343
321.287035
307.7042744
313.9497278
320.3119151
311.4351149
303.7745445
316.8228098
307.7596584
301.7551889
302.7651657
303.9000942
300.3685879
294.5964
292.5017642
290.6405678
282.8719755
292.891163
296.5608747
297.8353677
294.3225808
289.9787964
301.4841237
300.9722913
294.006276
305.6502696
298.6276442
288.8416635
290.9277996
305.028565
292.89752
296.6848033
286.1929319
297.7873472
299.2769451
299.628158
294.8274125
292.503296
292.0161029
295.2207645
299.3860856
285.8289191
294.6455764
298.6696504
289.0922834
283.7990361
287.685584
300.0437096
308.5113443
282.1412052
297.8614507
293.7255591
299.1396592
304.220707
295.3232715
286.1891817
274.1034412
290.8644869
294.1407441
288.9565534
296.2861927
299.8299542
293.9047976
288.2815142
287.6241901
281.6622618
279.7485123
293.9665321
285.945797
299.7550704
294.200233
299.3047077
305.5173504
284.8064158
287.8257328
285.2717861
295.824592
299.5474295
300.3394318
291.8681461
296.7382467
292.4238811
292.38062
285.3493393
292.6821921
304.2221389
298.5178201
285.2907289
283.9397811
275.6936692
275.2378876
281.8088516
287.0231125
292.8472484
290.6146691
292.7767992
302.1514607
306.6348487
312.9474195
312.930108
307.0806644
316.4008322
306.8906528
303.1987574
291.6538463
292.1564438
290.7165882
289.4999317
289.5818519
287.1711556
291.8313537
279.678591
290.4777746
299.2924515
295.4545207
284.9437186
278.6059933
299.9707491
292.6344521
282.7644518
279.7343601
292.9261633
307.7449495
306.1855414
306.0295465
293.5072136
294.759702
297.8874143
295.6523007
300.2136329
305.8796573
305.000915
297.4077484
299.9789123
303.0440436
296.4631391
306.3054573
298.9679891
295.3504308
293.6810178
303.6167573
308.4852522
289.7215949
296.7302489
287.0119361
296.0291691
301.8073965
298.7123175
294.5643793
293.0231161
295.0159114
299.7556251
302.8037186
304.252877
301.2433047
296.6382009
306.3992385
302.0599533
311.731767
312.1083848
302.0824606
304.9147012
300.1235933
298.8339262
301.654876
290.1549148
300.8049865
301.8381202
305.3643457
294.754967
290.2309276
300.3576667
302.953231
295.5255723
304.176574
309.301553
298.4542535
305.7097147
302.7691269
300.4948483
297.3150741
300.3789806
304.3559578
305.9690802
308.2785811
309.1842961
301.706267
304.227038
310.159221
311.4226011
306.8895563
306.9812702
296.1048725
292.1371683
296.7370075
282.5936138
294.411169
299.5301763
298.7954123
308.7301439
297.4234534
298.2770336
303.4144166
288.4532504
291.8000312
287.3436977
289.8354575
294.6592028
295.1899053
305.0813697
304.0895138
297.9167026
293.8630252
299.8016123
297.6593272
296.3107209
297.4630864
297.5669255
304.4597246
320.6924059
323.2569681
308.1166405
295.5781362
291.5268091
290.5591707
294.0334234
298.2955689
296.1044063
295.8305935
290.0585837
288.2865924
288.8916338
298.2394744
295.8215294
292.2780142
292.8143509
303.3289856
309.3358188
309.4909605
301.8250246
296.99292
305.4644177
297.4935348
292.5812043
281.6727495
285.2003953
286.534134
291.8973866
290.2223867
298.1214736
283.8824194
288.5451908
302.1041941
313.3009224
308.1430064
307.5321159
299.1586355
298.8580476
298.1757417
295.9635092
287.2531138
293.8668503
296.2088264
295.6541472
296.9889556
288.4017191
292.069644
286.9033484
286.448616
285.2318758
285.3831997
288.308583
294.6874975
310.6372016
309.2737967
301.2773505
283.6584186
281.8478292
289.4890265
298.224123
296.2751016
295.1925405
291.7383518
285.3901887
296.7075666
304.6873501
300.3297089
298.7000953
299.1995344
314.8158692
309.0437805
300.670982
309.6277611
282.5596204
304.9289685
312.0524799
318.0926001
309.4227517
309.8098451
297.4681882
296.1178944
302.099162
299.3394524
303.8138657
302.2771531
295.0062841
297.1961109
305.8343898
308.6571834
301.2807102
305.1058141
287.7593831
282.2931703
304.0593004
294.2030886
310.8753701
310.3303606
308.2111691
305.0403946
319.5350539
309.6589484
310.9262088
311.450367
298.5166908
293.7411238
306.6249683
300.9040943
295.6463673
296.3453804
285.0133013
288.5401147
301.5187301
302.419616
281.5713864
280.0246312
289.4539108
292.046544
302.6632446
303.1542368
302.2494248
309.0795001
314.9982222
302.2887211
297.7715861
301.0548246
301.0792753
299.8780167
297.6937501
283.1981609
278.1285743
278.7873745
278.2199603
286.7215705
296.2194356
299.007999
300.4250827
306.9913739
306.5547549
300.6293793
301.3061237
294.3923164
301.4656736
301.7528762
306.864124
303.8587145
319.1279027
308.9852238
302.0816663
293.0346638
302.3791562
302.4534682
299.5044245
298.6115067
297.0990199
298.4931895
288.9690012
282.3661846
278.7898916
289.1530401
306.5298907
305.3665561
307.0064199
313.8100161
316.5047263
307.7990163
306.1679359
299.1361628
291.6363068
299.7741818
299.7793176
301.8153562
295.5608366
299.0099529
279.2196235
280.7937587
290.6125535
293.2450493
292.6978006
290.6887163
293.3322345
284.4721095
295.0668263
299.6488825
303.6002968
305.444405
308.3761755
297.4592613
290.8623471
276.4425003
275.3160796
288.0744151
286.7723951
283.0989558
299.2381428
305.7377325
301.540688
295.5606837
296.4793105
306.2626081
308.3428945
303.4161191
290.0538773
286.8568115
298.4835574
301.6730053
287.3164303
296.6265916
294.276301
297.4648287
302.2768687
289.5828759
296.6833454
306.5811478
302.1857449
300.5936074
310.7974908
311.4399796
305.7224799
303.8974757
305.816967
313.5673995
312.321816
306.5346968
298.6192777
290.0085428
295.1233192
298.6561307
296.3824729
301.1424868
299.3375543
299.2526382
292.2821109
295.6929401
303.994406
303.585737
302.8625977
298.7689588
296.6654482
293.2845139
299.0422323
302.2192262
305.2048568
308.5301159
315.3240625
319.7489739
323.5219815
307.3285164
315.6223626
317.0657972
317.7214985
314.1877965
312.398442
308.3076394
301.3434384
290.5652524
288.9751824
298.6332879
295.8654952
291.1212084
295.9510964
285.9937588
290.6302139
296.2215518
303.3190299
309.1954145
301.5048697
292.2984805
301.4776346
298.3391272
296.1757556
303.4800517
303.0220497
302.3485863
315.0526248
315.1143514
326.6067473
305.5251695
304.1699075
314.5516492
323.0330927
317.6181812
305.7399967
298.7431728
302.1209625
301.1707801
316.0407246
316.5091793
293.6477409
290.8956806
301.5077802
300.4819887
303.8616719
314.0431157
314.9165261
311.8254819
308.6515868
319.7936721
319.9999928
316.0244768
298.9457976
317.3401931
318.3899338
303.359501
293.4912916
301.7405422
297.8244849
297.7991541
311.6205561
307.1732731
297.2235269
287.2128346
293.5671303
302.7711848
292.6122561
299.6310153
311.0001803
307.412011
308.2423561
305.3308352
311.2002449
312.1964901
307.1613124
317.7222065
318.4628019
306.4457137
313.632209
316.1127279
314.0851883
312.005193
313.9527416
307.0024359
297.8844843
295.5672512
301.1506605
300.5236618
300.1913006
304.2259505
301.1662811
305.144999
306.9044175
304.9774262
296.0714861
295.160026
291.0468868
294.6878953
299.3097943
297.7813993
304.6785906
308.2307211
308.6111317
316.52193
312.8105054
312.128483
286.7793468
294.4650184
289.6157036
290.0172348
290.3175066
281.9867116
292.5305524
298.7564465
290.708697
283.4803109
285.4642117
297.396943
294.9736514
292.8607181
288.5615257
284.3850311
291.7854987
302.4032758
296.6729841
285.1841083
304.3168193
290.1240168
286.6089046
297.2334606
295.1861794
292.0678001
279.439489
276.1904012
282.1652869
288.1104066
287.6411518
286.4269615
281.49727
286.2586335
280.95203
293.1084124
287.6001037
288.3920726
286.0201116
292.0560608
287.0985367
288.2944269
288.3493515
279.3447285
283.8224697
297.7987455
297.038319
292.0965699
288.6841223
283.1834359
283.9865186
294.2341416
308.4145056
306.6774012
308.0801339
293.4422297
286.4334186
288.2653573
281.8747986
286.2540971
311.9600697
311.1707873
311.7991689
304.3621292
299.0400799
297.8808535
297.1051774
299.0094152
302.4501133
296.1683727
300.0848408
304.523006
301.9454018
299.929409
286.8440486
296.9565719
307.0905806
309.741675
313.004859
310.3206687
300.5883716
301.698721
303.5542611
301.2648851
303.4303707
290.9068721
294.2731652
287.0750923
280.7072901
295.4626879
294.6147772
284.7773691
285.5940593
287.0637491
296.5214628
296.4903051
286.3800229
286.6488862
293.4146626
304.9557483
291.8353383
286.4695624
300.5347192
300.2705028
291.1650193
288.9692046
298.3030619
305.2827829
293.1603201
292.5408125
288.479708
285.7351571
282.6402395
299.2475019
299.7607445
304.2783875
299.1373916
302.4882127
291.670142
281.5702535
301.6603444
301.6373991
308.2293191
305.4640111
298.4776961
293.3184308
294.7577806
306.0047031
301.5210167
296.3437322
296.8952256
297.3363662
302.5446763
311.7635958
314.9134626
313.1182062
312.7354229
300.1761846
309.6033121
296.7594636
298.7692932
291.9004076
291.0962326
294.6879447
285.3009226
281.4177621
273.5257599
286.7405432
278.7533491
284.0806692
287.7613341
297.717706
290.9389456
289.4042255
295.6348775
289.7443961
289.9243744
295.7251055
288.9664592
293.9256596
293.0881158
295.8848743
297.1409317
297.1688502
286.5263731
283.9480294
283.5686358
293.4259755
297.845804
292.4425086
288.9613911
290.0083165
302.3861218
295.668866
291.3075443
295.2736925
295.043734
289.6014836
293.0813218
291.0610723
296.434851
301.2430628
306.7829342
292.5407835
291.3478453
292.3808709
297.6233649
286.3326005
292.9518583
309.9770543
311.8468271
310.6101368
300.3457502
299.6770406
307.2882048
311.372296
321.7049932
320.0621817
317.1118958
305.5481276
296.1809598
286.2693247
297.3599988
307.8893885
308.5551116
303.4170268
301.9907982
305.8817336
307.2097383
307.3363674
305.1361578
307.3656397
314.1767868
324.8727632
319.9734564
310.1950142
304.6339079
296.5539966
302.0028844
296.9721387
296.9753015
294.7894253
287.4557012
282.7529028
285.2692898
295.3765306
299.4424243
301.4588498
301.0619658
293.5884708
300.2743147
313.6376051
311.8321727
301.4103541
295.1763576
295.4014598
304.5186916
317.2258621
318.2753341
308.4665519
291.5298641
309.2767543
300.1822353
313.4725086
310.8479706
304.0492761
303.612767
293.9169849
300.3234244
310.0532261
299.8251332
304.9191817
300.7745942
296.1254882
300.531416
309.8726477
303.8401688
300.3769589
290.8053868
285.5292514
315.4049448
313.269817
325.603427
318.3198817
310.7804457
310.6322316
312.7633142
318.2672388
325.6643079
318.7045857
320.6016643
314.8565882
315.334923
319.1346353
313.1007758
306.9921524
302.1788124
301.142366
301.7692374
315.5071341
288.4005374
284.9999299
293.5535268
295.7213802
299.9913826
296.3643578
312.6021218
305.8450153
296.1185981
298.5225925
299.3904476
304.5150084
301.0496575
296.62821
293.369718
292.7171384
313.3806333
305.8624523
297.5727207
279.431574
302.3318847
299.2509591
297.2592531
295.1704211
291.2328982
297.6954971
296.5533703
300.1238831
311.5128421
313.4080831
308.6548721
296.997022
300.4988062
308.7930992
316.5286364
309.020606
293.8905951
291.5489778
301.9013117
300.0892471
280.9407433
288.231086
290.6380649
294.6137448
298.5577566
312.9221144
320.2412807
315.2161176
301.5247663
295.6521059
297.8507945
299.6378932
298.1472628
303.9874459
297.4670946
299.1813205
296.4281834
302.2166431
306.6265048
290.0311404
311.566606
311.6338795
304.0401401
294.4403297
289.4639966
289.403375
302.628438
297.7972176
309.0979425
304.0044897
303.0357267
313.9021261
309.4847985
303.279365
297.8312527
289.7993224
303.4509785
303.1402203
311.5243521
318.2890234
287.4834225
296.2858763
305.742209
302.1326089
311.4468571
312.5659278
311.0052274
307.0689937
300.3288358
302.6858389
299.4469496
300.0795735
289.5360498
290.183089
286.2839868
297.4527912
292.8585615
288.8651027
296.3140213
290.4907463
309.2646446
304.151064
312.7800324
317.5839542
308.0977652
296.215571
285.5721743
298.8968479
295.6492615
310.3931155
316.195527
308.2863665
306.7360506
311.8662184
304.9687402
307.248559
292.8364718
297.4724097
306.4350998
327.9378925
315.4592029
310.2651498
296.5421184
293.9781774
285.1449365
296.5619888
297.4688872
297.360765
289.4548327
283.5423095
281.3291423
304.1623705
302.3945127
302.7996645
301.2587174
295.2137917
303.1771477
308.6050827
306.6751052
307.6317223
315.3407833
309.7816018
297.9902316
295.597491
290.3931537
287.1953904
276.230586
284.4618297
294.489114
307.1709621
307.6548361
306.3576953
304.6385593
306.300182
308.6379195
311.9883915
316.0533637
304.8482698
309.7393063
311.6148722
285.4169274
292.9778151
302.7477419
297.3625026
300.2326904
298.0283904
296.0367125
300.0116688
302.5108502
299.8129934
300.7379139
295.8037465
298.5630272
302.3806335
304.7307072
303.7118987
313.3992203
323.4963085
311.7977482
299.2848357
305.787101
301.0106175
310.7721589
311.7613736
306.1891241
304.0809684
307.7430732
295.4250419
305.3441916
308.0588722
304.3794825
300.8675474
307.3217981
304.9429969
301.5832487
307.4334971
307.4283546
300.765628
298.1906675
306.3453227
325.3175841
303.3876718
301.6249783
307.5219462
308.8977672
320.3797751
300.8409504
299.4838984
302.4005413
298.7628408
300.8158688
296.1307162
301.6954077
303.2956124
303.5147983
295.7222991
293.9129354
304.5760917
306.3309215
320.4751986
311.0754637
307.5013733
295.0928868
299.7929514
293.211697
288.8075572
282.7574499
291.920424
282.0809156
287.7997707
282.7177916
286.2624832
286.3363529
304.3750103
307.7602701
307.0022477
309.5949038
304.9711527
300.4892687
300.0970475
301.0676553
310.3674024
300.4453995
291.6341886
285.1765293
277.6915366
286.1046419
280.4565043
296.4829082
295.5899359
303.5794452
305.1535472
309.9420648
296.5120295
300.0063437
304.6103761
309.6494703
311.725343
309.7302834
308.3761566
298.020819
300.9550465
298.3509987
295.457408
279.320054
279.8323186
284.8496303
295.8711254
295.6210695
304.101988
301.5615498
305.8097203
295.1537591
298.2222817
301.9504082
297.4252615
306.1662459
303.3454312
307.6600337
303.4386666
302.0044151
292.5455944
302.2257327
298.1606578
309.2850236
301.3309455
307.4597874
313.9720835
318.3625154
306.2096548
305.3387937
298.8275278
306.4836535
306.2111326
294.3380502
293.6419396
305.7757321
309.0477903
299.6602918
296.7838567
312.5476458
298.147981
289.1594188
300.6424351
304.8388948
303.1904556
299.7891286
307.422485
298.9702153
299.8298474
306.8767569
309.2634713
310.8045175
306.954783
314.408667
312.4285024
307.9936412
299.99837
313.2780903
310.480117
303.7321309
302.7569588
299.6012476
299.0604357
308.5764968
321.2287348
301.4318939
300.885192
304.494051
300.6889386
302.9967367
301.3248247
310.2300273
304.7021614
299.8145101
296.8162887
305.0608895
315.5487164
307.570429
307.5279464
284.6279372
300.7029975
300.8055385
307.2891931
308.906839
284.895183
285.6556679
295.7796776
295.9237368
299.0820225
290.9154042
303.1512723
296.1329089
288.9054534
291.0564619
296.0474166
295.4404077
285.9191328
281.9469286
284.3197719
305.9503534
304.4333484
302.1339539
304.1209556
310.4763555
299.1633774
292.089808
307.184745
314.2708352
314.9138651
311.607459
300.1851796
308.059038
306.7405472
305.4161188
302.7972948
301.167825
296.6749436
285.493643
296.6592104
299.6693374
282.3733528
286.9482305
288.2980061
289.998296
315.6677091
313.1375047
309.5150535
309.7561881
322.8920928
322.6635786
312.9230041
311.1485157
305.6050526
296.876625
290.8229618
297.0623455
298.5769964
299.3520999
304.4403712
286.9967893
288.317461
292.3828592
286.6802192
305.5221352
295.2857228
296.2502924
305.7351973
306.0835089
286.5325682
296.9188463
294.9849142
297.2923274
304.3185362
301.056685
298.1122774
296.9920798
300.8607286
295.393344
294.9224747
302.1006322
308.8335306
320.9976948
317.7297553
316.6798274
318.7305933
305.7368974
304.3017923
294.1507092
299.1944574
293.6403729
289.7128867
296.5343488
298.2814811
288.6203936
300.4899817
309.2019865
303.8718223
303.1880251
289.5149866
290.2726126
299.0099543
303.5665786
292.9342522
287.8363668
280.4019112
286.4253409
298.6000696
293.0041317
289.8497956
293.3611017
295.6217789
285.5090031
281.8686682
300.1777948
308.530061
301.4515474
296.7636305
295.1974786
296.7609144
304.3423035
296.2040023
290.3023809
296.9057279
305.4980017
309.6411925
306.8877825
291.5443065
285.1927239
283.2215176
282.6822234
287.4231802
290.9372773
299.2738463
304.9647497
308.6887598
321.2431556
313.1497991
306.2644472
293.8882584
307.4009953
307.3363026
298.8650978
295.0711494
294.4512989
294.87537
292.3943483
287.2759318
284.8034607
290.4129338
296.1115018
296.9673867
290.318517
286.5210712
293.6437229
289.1444428
276.0249239
295.4917222
289.9304783
304.1704651
275.0227184
287.1014899
291.4183941
300.4147484
303.6664607
300.8636477
302.1694793
297.2980239
295.5328425
285.752325
285.1019677
277.6772447
287.921353
282.6246738
274.699619
278.5842833
290.8767283
288.5641906
284.2183774
271.8108925
300.5462491
303.7941198
311.1137256
302.3820826
302.7025688
300.4543696
303.2777137
303.4014486
295.5333067
300.9926928
288.726803
293.6901914
295.6965247
299.9831542
297.0143113
293.9677319
288.4679628
292.215496
293.1726947
301.1893558
289.1923651
295.3695227
297.7191382
289.7871016
284.9469581
291.6483649
292.8784252
286.7265509
285.1995899
285.5017948
304.6520337
306.9411144
295.7615797
282.3046899
288.3142374
296.9386926
291.5466838
279.6889763
291.2432254
300.112181
302.6478924
286.6080305
288.0457893
304.5311371
296.5116662
297.7918058
300.8250988
307.890407
301.7103397
308.863903
303.4496494
298.2810061
304.3245842
303.4884294
314.8188091
303.4422681
299.2025925
294.9046813
294.3171425
294.8547561
294.592704
304.8369602
307.493661
310.2602065
302.5979832
298.953669
310.371681
304.8957064
304.5568753
293.2115072
293.161025
299.6708207
294.5557723
285.7656835
288.9967414
296.2729928
298.2129536
299.5760684
298.3378058
295.4133393
302.1760984
310.2830941
306.0383981
313.7614613
319.2003876
318.5327661
293.8634363
302.0719587
314.2576157
317.0092059
311.7549242
309.1066234
290.5545659
292.8111844
293.4835097
292.3162702
294.798553
291.2705274
292.6435616
304.2212216
299.9776867
296.8085395
304.301567
308.7500984
310.3867821
301.7624182
320.7118921
311.0756563
311.7381852
300.9449549
307.9991296
309.7383145
311.8426564
306.7541316
316.0948945
306.3751842
309.8782878
307.9273348
312.2850093
312.0996699
312.6275457
322.3586381
327.0814591
312.2073473
310.5233125
307.5954761
313.1246224
313.2328529
297.250401
297.5860989
310.3912343
303.2069974
305.4361967
313.7924431
309.5791155
317.1422588
306.291018
301.3669644
309.9320775
317.0592483
290.1096367
287.7686809
289.5887913
304.7678281
302.4660917
311.5602542
310.6515612
291.0978792
297.4038173
307.5829182
310.8211016
302.0635728
316.3748543
314.4725784
308.0057167
305.0141171
308.1933521
304.5951336
287.2312125
284.7562089
294.4356625
301.7629275
301.0307125
296.0479715
287.9844969
283.7001983
300.2926207
315.1350026
307.1745747
312.8329647
317.2040665
314.6388273
308.2495747
309.5087174
321.8546914
323.4046601
313.0168924
309.517352
302.420648
293.9640393
280.7952532
283.6701154
282.8446327
293.4243308
296.434863
295.6534965
302.343015
303.615881
313.2936768
309.3696881
304.2467804
304.7570063
302.2330523
298.2717521
300.7052262
297.1903598
301.1636187
297.1070054
291.6026395
288.2374713
309.9956534
312.8753123
293.8031872
290.8495851
279.828448
278.3280683
279.131214
280.2808762
282.6936852
291.0958378
293.0175908
298.8047144
306.2995155
316.2467774
302.0099075
305.2791274
303.8286552
309.9660344
304.0661957
309.5418849
315.9992003
306.8238418
311.8502149
307.3314266
306.8631936
303.1015339
306.7904403
299.1630774
307.4559376
305.2329215
295.5807647
286.4871469
283.2005719
295.1733904
310.2871016
301.6194587
304.8930045
304.1599534
313.221928
316.0448064
300.3113534
311.953105
298.3946349
302.6233352
294.6427313
292.1276021
299.7643075
295.6353109
299.1569715
306.6051503
305.4004576
302.5894852
310.8357873
300.5636957
286.1714577
277.7591292
282.2897668
290.65446
284.0067671
303.3147951
289.9364254
291.7113026
296.8968236
286.1625699
291.9750614
298.6018413
295.7467607
291.1672042
286.0902721
277.567031
284.4454336
286.3948227
285.9219007
292.4443514
298.7136106
305.1423389
301.7475609
305.4765709
301.6642271
288.7387215
299.037697
298.2538041
303.3233583
300.8680038
296.6713375
293.0227043
294.4327678
295.8199698
296.9245094
290.9641499
294.7142166
295.8053928
297.514682
303.7083923
300.7256053
293.5234291
298.5386306
289.7431156
294.332601
293.9534855
299.335512
287.9238834
277.6993529
280.2929549
292.1683902
301.1297103
292.8561824
286.3706164
275.2589925
281.6653106
300.8666434
293.4771857
287.6029944
284.5226866
290.4522709
300.8573315
299.9849733
294.2827933
291.7748744
300.0916979
297.1196644
301.9484115
293.6558637
299.1751297
284.2482508
278.0567863
289.5895518
281.7301685
288.6889269
290.949551
290.2938324
297.2689235
302.2330663
305.8153037
304.6351762
298.6307813
306.7689149
305.5086546
296.8507973
302.6154368
319.4064614
323.3460227
305.7652778
303.7122996
314.211543
309.9300277
300.4674193
287.6048303
284.0070879
294.2587911
295.3227341
300.1828847
300.5735092
308.1018618
302.8880902
297.0098699
300.7571272
306.7557613
311.8526078
310.7399176
295.5975045
305.8552996
301.0786777
297.2993727
300.8642002
300.2966132
298.347134
290.3010454
275.4843467
283.4801047
281.1491537
292.9363486
291.1407683
295.5485499
293.8316544
290.1720412
283.7960402
299.3223368
301.418788
298.4101208
304.9318254
296.3047826
291.8148818
299.5614237
292.497197
291.0000023
292.1520278
288.1602678
284.921231
298.984001
294.7648693
300.3054642
315.5414584
314.0291214
309.2793168
311.2146328
314.7733394
298.710217
301.234306
302.7622328
314.1388044
312.5244026
309.5557559
302.6556607
305.0327915
296.6694312
301.8604268
303.4191844
300.8590392
292.0674298
284.1588749
287.3725329
302.2573283
314.6338496
306.3191245
308.540694
299.2851454
305.4353249
303.2258496
297.1986164
311.8565471
320.3472285
314.2884645
299.9801368
306.2561279
314.3474303
315.4419189
313.9935009
299.7880152
311.5090169
307.118967
310.2560767
299.6857244
307.3499598
316.3833689
332.737201
333.8270509
321.9239946
328.7859948
310.1159314
325.6700021
318.3135576
308.5752136
308.5260124
296.7949472
293.8842863
283.5325625
290.3982236
303.6293757
301.008044
299.3368486
289.8529922
295.7371758
300.7296886
310.0950865
298.4984789
307.4599306
314.70517
314.1236253
322.7877279
312.6732516
308.3209638
309.4218829
312.8183862
310.5046639
311.6576057
312.7763069
307.6215548
301.4763623
282.9772142
292.7077097
301.7991806
297.1103866
305.627502
311.6959852
295.5842144
307.7676409
306.6209025
311.1691153
304.7936831
293.669391
292.0955436
292.5342592
291.5841351
299.4349225
294.736661
284.8960998
286.5425311
293.2224278
297.5292522
297.2684949
311.5893814
310.0757451
305.4441417
308.649631
312.0133375
297.4576824
295.2206509
297.3207658
303.0838249
303.841162
301.2663315
293.5961171
289.8472019
292.2577156
294.4882878
297.0952144
296.0250661
300.9589257
312.0810203
318.9544118
315.5855845
314.0233048
305.4561414
296.4394954
293.6050779
298.3575205
303.8696769
296.5954243
302.8798864
291.9500956
283.5778105
287.4073164
271.343797
271.3564796
282.3593272
275.5167295
285.2087109
293.4183311
287.1318166
289.6142041
287.644773
283.1450887
281.8946481
291.0080424
283.5769854
289.9330837
293.806762
296.2068679
293.9092861
285.6710112
279.7172948
281.2835083
288.3078293
291.8809734
291.999453
290.0257108
289.2989998
287.3482441
290.3894894
295.0257858
299.3215747
297.7302152
296.3386653
294.0204799
295.2487287
288.824847
285.2202855
273.2691888
283.9038301
304.4565822
301.4107115
299.0681605
297.7096488
293.1502253
291.665269
289.8535828
289.589889
291.8669756
297.2033089
299.8109572
300.853735
296.002134
295.1758001
287.743576
282.9753744
287.0578855
282.7723211
294.7597371
296.4774158
300.2068199
309.3006409
302.3506432
305.0647287
306.3074626
307.5339559
308.4278009
300.8130222
299.284404
300.7269465
292.4413289
298.2118728
306.3509423
297.1670428
283.866486
301.2547537
309.0890555
310.4165179
311.2347957
302.4949539
290.289013
300.5832703
312.4126309
311.3352224
308.0998094
305.7948805
309.868818
315.1435202
318.9798207
318.2104677
299.3500754
304.6646627
302.2435164
288.9362667
289.7890292
290.6588898
295.8837986
290.7589236
294.5191284
289.9769369
313.1704093
300.6472906
302.1977363
305.5726059
304.4819382
301.8852195
297.6284601
303.47965
306.3456946
297.82765
286.3348458
288.9324211
280.4223717
285.218098
279.1983815
285.1860911
293.464945
297.7143913
293.9627963
303.0089292
314.3562962
304.1920024
299.4985907
304.5980138
302.4880368
302.0932116
295.3757173
291.0610309
290.9928855
296.3806244
296.4205524
288.7785134
298.1476707
290.8667739
291.3153108
295.7621787
285.2003708
306.0291756
307.7925363
316.0103867
304.1314795
320.0645508
329.1556877
317.5323846
309.9706484
304.52507
309.6206494
304.5902213
313.6376002
305.2446914
306.3585222
304.9941591
306.1164396
297.3600382
296.8057115
293.4198208
290.8454419
289.6449885
293.990896
295.5032967
298.3380378
284.7116097
275.9038725
279.1677838
286.4713857
297.035901
303.8393798
318.2519435
310.1844479
302.6315924
304.5793149
299.5764684
291.8554052
299.7040209
308.0704764
306.6851935
294.1920344
298.8772677
299.6495233
300.0447054
299.1697776
286.3870314
292.1896372
292.4975648
297.8529498
301.8286329
308.1106016
297.7706787
296.4205955
306.1517537
302.984949
306.2778931
296.4155882
305.7696607
301.9352556
303.4263992
309.4132485
301.4903752
302.5029993
296.9882907
304.4805496
300.628881
295.400956
297.7391504
295.0483018
298.0119188
295.4628597
297.0937059
303.1294814
310.477747
304.5870326
313.6815218
302.0195715
296.4250009
293.7168336
291.1885591
287.7169826
284.9186689
282.8777351
297.9108324
302.7512775
299.3766399
296.8651032
298.5739195
308.5754363
311.3471142
301.2800058
312.8941056
314.8629658
309.9298825
307.7703391
320.6121958
313.4624739
302.1087703
297.4434494
303.6196714
305.0610129
304.3958721
306.8707863
313.1188243
323.6972111
327.9528312
323.5349456
325.8037538
311.138311
304.1787153
309.3985693
311.4967521
302.6956719
309.5103888
311.0709124
298.3106322
307.1055686
312.2575503
305.7611788
301.5926004
301.7008313
301.8657375
302.7323272
320.5600533
308.4805448
308.3946194
311.3854365
312.2582989
306.5234797
301.5365796
295.5141524
296.3489661
293.365246
294.1718898
291.7107976
288.4253142
296.1280316
305.9894242
314.0388393
323.9715512
332.9942221
331.7836123
331.5627396
322.6470875
297.4134867
297.6245056
310.773087
307.1751298
306.1657514
299.5138453
302.5691024
298.7370343
299.9110706
287.9931258
291.4158226
296.7045616
301.5522805
305.2896627
280.843638
290.1161009
297.8388236
297.2262276
296.9308609
294.3143362
297.3209211
302.0647568
299.8372193
288.0333662
297.7113963
299.8115592
307.0900226
312.2266635
295.6026505
284.1081818
283.4382298
285.5766448
295.5657989
295.8507783
298.7625248
294.0057863
300.4893488
298.4146931
306.9709358
300.0010207
296.9880074
290.2700028
281.0264106
282.7290539
281.8554978
280.6266561
286.146069
290.0466085
291.6185128
299.4290036
299.647525
311.9253251
309.7547861
315.4656248
316.493961
304.7248279
289.4595486
290.9285534
284.8009352
289.6179544
294.4948844
289.0776244
291.5459814
305.2078464
307.4575226
301.5113679
296.791239
286.5135341
290.9305803
287.3165824
286.930472
296.0569624
299.5693388
291.1978673
281.4110608
293.0121514
300.8966219
291.7723154
294.0650691
294.1758904
299.6411261
298.8360531
305.2846443
297.5277004
300.0469786
296.0760052
292.7849906
287.3420335
292.0065465
293.8893648
300.0383781
301.5634913
289.9593825
295.1818993
308.1894904
298.456665
295.8798292
289.948524
295.5453665
291.8875982
307.0302647
302.5913498
298.9637865
306.802416
305.2521954
307.4020029
304.7334665
297.4081656
296.3592628