/*--------------------------------*- C++ -*----------------------------------*\
| =========                 |                                                 |
| \\      /  F ield         | OpenFOAM: The Open Source CFD Toolbox           |
|  \\    /   O peration     | Version:  2.4.0-MNF                             |
|   \\  /    A nd           | Web:      www.OpenFOAM.org                      |
|    \\/     M anipulation  |                                                 |
\*---------------------------------------------------------------------------*/
FoamFile
{
    version     2.0;
    format      ascii;
    class       volScalarField;
    location    "0.001";
    object      p_mixture;
}
// * * * * * * * * * * * * * * * * * * * * * * * * * * * * * * * * * * * * * //

dimensions      [1 -1 -2 0 0 0 0];

internalField   nonuniform List<scalar> 
5120
(
0.4188470441
0.3978606562
0.4185847219
0.4388675529
0.4319039155
0.4120492308
0.396186037
0.4152839554
0.410574196
0.4071496012
0.4114197769
0.412672152
0.4342887487
0.4594331236
0.4557702691
0.4492697343
0.4531565386
0.4318671667
0.4072344879
0.4048549638
0.4199051531
0.4092338593
0.4334039112
0.4422337399
0.4283488883
0.4251606105
0.4291877285
0.4474040625
0.3947138916
0.4083764493
0.4293496064
0.4404560297
0.4299592708
0.4000004386
0.377316111
0.4320477515
0.4370213782
0.4447407912
0.459187031
0.4280826606
0.3995717374
0.3996247589
0.403378251
0.4165578725
0.4427371011
0.4315408657
0.4323087279
0.4310007873
0.4307697334
0.4392606064
0.4547535391
0.4602094577
0.4559967334
0.4690811567
0.4646555938
0.460321944
0.4409499555
0.4579104467
0.4449527588
0.4231327201
0.3981611108
0.4347743153
0.4608787104
0.4845852388
0.451236546
0.4280512696
0.440054754
0.4294779368
0.4306714392
0.433202222
0.4429285974
0.4164668019
0.4133762696
0.3791515322
0.4147957465
0.3926516426
0.4151385679
0.4043806398
0.4054445122
0.3999435832
0.4220381836
0.4067216069
0.3826320069
0.3726553913
0.3995756951
0.4396414629
0.4313345023
0.4342016529
0.4327364162
0.4067333828
0.4132361122
0.3830982244
0.3878866584
0.3993972811
0.4262909034
0.4240948345
0.4295467306
0.4394426968
0.4340437723
0.4325346699
0.4075497874
0.4113901241
0.4306996743
0.4352608867
0.4190579231
0.4002703185
0.4053295044
0.3907086233
0.397623063
0.4027230012
0.4058347863
0.4234264447
0.389065778
0.3859222583
0.3967946591
0.4346439735
0.420652648
0.4127170878
0.4238302833
0.4287700616
0.4164515952
0.3896384984
0.4160239191
0.4429486378
0.4448761762
0.4296895292
0.3938554723
0.411086596
0.4237827257
0.4370187761
0.4409930059
0.4288917979
0.414070915
0.4245233243
0.4336989457
0.4426732429
0.4384232926
0.4752472477
0.4506779266
0.4271680762
0.4409347289
0.4174663412
0.4264066619
0.4069732796
0.4371431532
0.4269386632
0.4394486011
0.405266168
0.3992383343
0.4296275764
0.4434047493
0.4202441907
0.4570096944
0.4384107017
0.4542100641
0.4756570448
0.4855738195
0.4352617855
0.4260165387
0.4281789679
0.3839670858
0.3667722265
0.3555199335
0.3675791345
0.3981601072
0.4253433771
0.4568098873
0.4549659601
0.4525978938
0.4391884535
0.447535838
0.4638152991
0.4441013313
0.4332753544
0.4351367811
0.4175097159
0.429531713
0.4103749972
0.4241564256
0.4132755592
0.4156162103
0.4011808567
0.3983463367
0.377366779
0.3934139932
0.3774397967
0.3885284412
0.3992956932
0.3971296683
0.4020625892
0.4216316927
0.4097264521
0.4275693526
0.4252076393
0.4085786271
0.416473886
0.4064483163
0.3874354437
0.380099205
0.3858343461
0.3881949166
0.3991545314
0.3993102483
0.3958761846
0.3928635354
0.3902719598
0.3883816924
0.3811298798
0.3831289084
0.4161583367
0.4199748749
0.3905330136
0.3749410009
0.4082127077
0.438866666
0.4311837362
0.4007304469
0.4153930414
0.4218452936
0.4048179813
0.4264287098
0.4048391938
0.3935569266
0.3887987249
0.3886983862
0.3868323565
0.381127059
0.4050593254
0.4161670181
0.4037710549
0.3994258306
0.4078637004
0.4072244528
0.393590684
0.4080411431
0.4119375075
0.4318446084
0.4046381413
0.4082296186
0.4387526409
0.3718313988
0.4002250958
0.4002809738
0.3733573097
0.3812850156
0.3942673699
0.3900345558
0.4096902248
0.4179354826
0.4167168249
0.4099306688
0.4184757756
0.4101204599
0.4044026214
0.3892193079
0.3859300654
0.3988692626
0.3936790408
0.3948710557
0.375975752
0.3990225323
0.3925033208
0.3942320453
0.4189116959
0.4093306962
0.4147326404
0.4192515828
0.4462041308
0.449589702
0.4210968288
0.4139259892
0.3949973464
0.4005901999
0.4031629132
0.4112581897
0.3944159448
0.4074546418
0.3983439096
0.3638420014
0.3945105416
0.4452528682
0.4263747564
0.3878510065
0.3640569016
0.4051750717
0.3984979859
0.4095112385
0.4020896572
0.4143552344
0.4324833899
0.3994572174
0.3908200135
0.3855471557
0.394435389
0.4047743463
0.4039172485
0.407415656
0.4149498842
0.4331445399
0.4293557697
0.4442585281
0.4577181356
0.4415721132
0.4339556578
0.4317103715
0.4155505819
0.3995848952
0.4226147751
0.4403334089
0.4207126519
0.4300460396
0.3837658274
0.3897297909
0.4163034504
0.4130787865
0.412657836
0.4299739922
0.4362575474
0.4404617193
0.457264677
0.4103969767
0.4283157321
0.4208102748
0.4205510615
0.4284596956
0.4775522501
0.439377836
0.4237248029
0.3799640147
0.3906836454
0.3970728332
0.408730401
0.3913345629
0.4213756177
0.4396198917
0.4358622655
0.4209331028
0.3988685807
0.3939202591
0.4047050006
0.4261504901
0.4273808942
0.4405034461
0.4274109314
0.4318860651
0.4184981768
0.4121308257
0.409715216
0.4266807324
0.4352595506
0.4115366513
0.3998050205
0.3870132075
0.3757979183
0.3966822944
0.4294612934
0.4214430156
0.4315324145
0.4432953902
0.4366937605
0.3961259383
0.3998682325
0.3906661898
0.3714690152
0.3822463463
0.3995358699
0.4132407967
0.3880537878
0.4194044956
0.4044670213
0.4111093758
0.4164797649
0.4235504266
0.4234890417
0.4356301079
0.4085024035
0.409992036
0.4097381816
0.3864980292
0.3971122147
0.3960785604
0.4085541302
0.3863933971
0.3822912631
0.4143160308
0.4229380161
0.4286679806
0.42166558
0.3973721737
0.3842700784
0.3768823001
0.3775391404
0.4036814809
0.4161823258
0.3957012577
0.3897281793
0.361370364
0.3616857843
0.3593095592
0.3653788552
0.3916859962
0.3979360198
0.4246153524
0.4434220306
0.4139591664
0.4266635444
0.4012990473
0.3934945965
0.3913894827
0.3834516903
0.383513833
0.3427270317
0.3815815185
0.4032393956
0.395187185
0.3813402378
0.4237270843
0.4109708173
0.3987162291
0.4063749254
0.4259467426
0.4157633192
0.3883615004
0.3736221369
0.3545268808
0.3513550264
0.3422839159
0.3364030002
0.3911269426
0.4080025177
0.4052552009
0.3970746221
0.3933100847
0.3948866533
0.3836529967
0.4081092511
0.4042390628
0.3729348739
0.368704403
0.386745793
0.4299686075
0.4232396636
0.4183363397
0.3965023098
0.3853411978
0.4087096258
0.4248104122
0.4227409502
0.4112898313
0.4132375104
0.3923687394
0.4265182525
0.4506488697
0.4354247546
0.4169999048
0.4001101048
0.4376566574
0.4280147317
0.4157562935
0.4295754312
0.3857625452
0.4242347979
0.4140071257
0.4533378211
0.4424629155
0.4221323399
0.4181769766
0.4343753652
0.4325118056
0.4118626954
0.4449506297
0.4512137951
0.4228990295
0.4244798671
0.4579745499
0.4531662657
0.4332018856
0.4188920561
0.3930074232
0.3837376325
0.4128020875
0.3944283541
0.4229378918
0.4117111387
0.4055867059
0.3835712176
0.3989671185
0.3895030189
0.3819425283
0.3812729127
0.3567879525
0.3569034527
0.4078753737
0.392860078
0.405310933
0.3933701632
0.3658327999
0.3901320614
0.4168183779
0.394281262
0.4161039188
0.4151276347
0.4370423198
0.441771463
0.4288186848
0.4474592865
0.4154509512
0.4306733808
0.4610574795
0.4137041305
0.4147614017
0.4177353163
0.3953109256
0.412608856
0.4048734231
0.3819029874
0.4084058259
0.4066906247
0.4119034446
0.4308954
0.4418414989
0.4356888187
0.3950141826
0.4325293807
0.4262964255
0.4080854545
0.3986006633
0.4099440061
0.4350381921
0.4490004223
0.448950486
0.4454023558
0.4806375754
0.4348421814
0.4346442775
0.4211908702
0.4213144697
0.4061916443
0.4282591575
0.445988689
0.4127976936
0.4061491529
0.3905580047
0.358989501
0.3742886157
0.3834728223
0.4257142628
0.4243937064
0.4305856095
0.437573021
0.4262292193
0.4431305499
0.4197723951
0.4172557345
0.4054665259
0.4238098115
0.428477322
0.4496830636
0.4274096398
0.4233134663
0.3818647576
0.395760158
0.4285500347
0.4332491658
0.4315664676
0.418538902
0.3983888483
0.3752954531
0.406967262
0.4205937975
0.4133652553
0.391748189
0.4236610923
0.4204771394
0.3927497137
0.3721758695
0.3863904263
0.4046929191
0.3920857371
0.3661970021
0.4095371019
0.4024221159
0.3848093886
0.3907522519
0.3847547132
0.4224180561
0.421183799
0.4098023588
0.3868055773
0.3745291015
0.4147543533
0.4134623673
0.3738614317
0.3967626735
0.414220584
0.4082951937
0.4170877911
0.4041177354
0.4013349224
0.423805749
0.4064414413
0.4184606913
0.4421094615
0.423319926
0.4051004454
0.3866195129
0.4059834293
0.4290643989
0.4572609405
0.4511673027
0.4391322664
0.4165224319
0.4334128997
0.4297293642
0.3782846396
0.3906523025
0.3784548866
0.4117163514
0.3926034095
0.3776128642
0.4250431913
0.4169459858
0.4345135057
0.4121090666
0.41735718
0.4100944258
0.3991205708
0.3896052614
0.4026101988
0.4151390591
0.4344923634
0.4564861509
0.4465115292
0.4080722015
0.4197942981
0.4262868148
0.420927526
0.4219629294
0.4271805039
0.4354221723
0.4221759014
0.3982747303
0.3900631955
0.3963128108
0.3942332755
0.4061795534
0.4174156972
0.3765732193
0.3700146938
0.3659306228
0.3845707211
0.3935948671
0.4100036081
0.4085953143
0.4287063407
0.4419716351
0.4204840707
0.4592802985
0.4413816274
0.4309762133
0.4173223028
0.4061492821
0.4451276845
0.4024046314
0.4154475626
0.4129983827
0.4291500694
0.4367333107
0.4333404992
0.4165081733
0.4166017675
0.4156101415
0.4432558066
0.4320805035
0.3948527017
0.3752631525
0.4027215172
0.3977746522
0.4085240904
0.4161085914
0.3944067248
0.4020400116
0.3970910891
0.4155217456
0.4341943649
0.4254683866
0.3888037698
0.4230230893
0.4268023014
0.4100184965
0.4095447615
0.4127411198
0.4061788839
0.4156872912
0.4494573865
0.4376614119
0.4193235274
0.3861415823
0.4163146751
0.3771337358
0.393114062
0.4016790587
0.4059811383
0.3897011343
0.3976840609
0.4083203612
0.404822047
0.4009921059
0.3912016761
0.4166730613
0.412236967
0.4038797969
0.3885853291
0.3917125026
0.3929892038
0.4054377384
0.4451058894
0.4419343493
0.415760084
0.4273401438
0.4155015432
0.3921572538
0.4001469399
0.4245037327
0.422722767
0.4208816276
0.4084059727
0.4186017212
0.4101311839
0.409334953
0.4014561281
0.4232296106
0.4287650523
0.409466388
0.427412869
0.418867143
0.3982572692
0.3964354466
0.3970202261
0.410057702
0.3800094007
0.3767876857
0.3865347745
0.3863139741
0.3970408212
0.3927771646
0.4140133656
0.4158932539
0.4062351368
0.3899073117
0.4010228336
0.4234515086
0.4282935053
0.4350587194
0.4122814255
0.3927958279
0.3778597211
0.3810865996
0.3809175751
0.3868683175
0.4110991132
0.3812556174
0.3696632137
0.3879072684
0.4167329114
0.400376275
0.386861761
0.3929730256
0.392743634
0.389716342
0.4123632039
0.4240655984
0.4491847127
0.4400455161
0.4139257871
0.4325228277
0.4244883111
0.4052074328
0.3899828855
0.3833856281
0.3889790731
0.4097235436
0.4272622865
0.4316595287
0.4276240564
0.4627548528
0.46160664
0.4370571774
0.4401864127
0.3987050827
0.393287924
0.4068612988
0.4035768794
0.4076986013
0.4408214956
0.4048467219
0.37717226
0.3873260941
0.3768348812
0.3933070855
0.435990071
0.4238934424
0.4146536342
0.3948989299
0.4021718725
0.4245083447
0.3932333788
0.4078850637
0.3998092697
0.3998373201
0.3852833898
0.4159714619
0.4387464338
0.4249801314
0.3823019316
0.38672987
0.4078590256
0.397192246
0.4082170337
0.4064747042
0.4012758912
0.4162532765
0.4206646461
0.4150099188
0.4075585183
0.4061321594
0.4110406783
0.3869002202
0.3851806401
0.4002716322
0.3904523291
0.3741731777
0.3768247256
0.3671510313
0.3857556913
0.3892167415
0.3584422922
0.365593521
0.3845880616
0.4129274331
0.4118046049
0.3931506057
0.4168349975
0.4304139651
0.4320251083
0.4207572802
0.4231143025
0.4008114759
0.390026113
0.4201131347
0.4225698179
0.4286868906
0.4234660578
0.4355317184
0.4215371719
0.4355427678
0.4274694688
0.4537942838
0.4091366689
0.4008012082
0.4058337035
0.4170128167
0.4449418126
0.4398156958
0.3937755926
0.3922768241
0.3869110844
0.3917285208
0.3886045942
0.3980808034
0.4103659946
0.4006915792
0.4043572164
0.4285465103
0.4390145754
0.4407325215
0.4234420123
0.4179805637
0.4299326739
0.4106842541
0.4179111965
0.4377131601
0.4246311186
0.4192496708
0.4246112239
0.4052868395
0.405932444
0.4325630357
0.3982265859
0.3904402585
0.3881487097
0.4093541343
0.412540057
0.4098917081
0.402051296
0.4022067041
0.3910141695
0.403759369
0.395210788
0.409656303
0.4227260927
0.414749715
0.4169279807
0.4381572744
0.4305735178
0.4163559628
0.4345565651
0.4369656342
0.4459254197
0.4246930267
0.4196672821
0.4094547942
0.4178151082
0.4118711369
0.4238139522
0.4240780811
0.4102528235
0.3926264657
0.4130661552
0.4343215059
0.4020713488
0.4033857017
0.4394015464
0.4386072003
0.4392729103
0.4788047082
0.4508107247
0.3995824072
0.3949843706
0.4132686764
0.4305666505
0.4509148853
0.4258416314
0.4241207838
0.4356174298
0.4443343652
0.4672980124
0.4284845633
0.4161161245
0.407416432
0.4019775143
0.4003390283
0.3957630877
0.4186467616
0.4171330899
0.406684441
0.4234463579
0.4658616729
0.4485571505
0.4411707604
0.4178442345
0.4191744467
0.4269666576
0.4621475703
0.4726977686
0.4440075179
0.4257618371
0.4240618101
0.4369794282
0.4041155101
0.4342382512
0.428174979
0.4069334362
0.3847506093
0.3846356278
0.4009820147
0.4106235728
0.4260512521
0.4188284194
0.3970474019
0.4311045199
0.4551631162
0.4567646836
0.4524153242
0.4467803023
0.4337607692
0.445174393
0.4615575508
0.471069749
0.4443086957
0.4132041281
0.4432539098
0.4142915696
0.4220249922
0.4176561678
0.4295332384
0.4258769854
0.4282160855
0.4389828571
0.4732549061
0.4631352978
0.4556875768
0.4433824305
0.4074652061
0.3943704895
0.4064105636
0.3805065574
0.3839070693
0.3696219971
0.3859111244
0.4056773349
0.4282040839
0.4291605351
0.4421323742
0.4370445161
0.4409070716
0.4345016972
0.433330321
0.4627609664
0.4473127323
0.4472397052
0.4153231971
0.4076643067
0.4001973493
0.4031134922
0.3864268697
0.3849175204
0.3854973735
0.3999801035
0.4180610106
0.4085173322
0.40798617
0.4476881471
0.456800346
0.4533594766
0.4711758815
0.4800008521
0.4811244829
0.4537212038
0.4233463104
0.4268961153
0.4284636642
0.4174481807
0.4232300135
0.4013623595
0.4078324191
0.444633185
0.4291520284
0.4142454653
0.3691865561
0.404361831
0.4352199066
0.4192307565
0.4174829333
0.432204481
0.4433343937
0.4425816605
0.4343015282
0.4277319482
0.4448332924
0.4226370774
0.3891462436
0.4247417623
0.4055801956
0.4250124601
0.4139837765
0.4017314733
0.3895625854
0.399990342
0.3912848123
0.3830770269
0.377627806
0.3995239069
0.4093984263
0.4082004853
0.431710685
0.4347033784
0.4349783037
0.4149965952
0.4076398315
0.4214500271
0.4199693615
0.4190738938
0.4053690511
0.3672636822
0.3679226177
0.3449881782
0.3783503369
0.4065192061
0.3909811299
0.4263600872
0.4427358017
0.4069113661
0.3909365534
0.3763836751
0.4143111341
0.4287036452
0.3993720383
0.4062942673
0.4200104073
0.4327273254
0.4307975619
0.4052558079
0.3908417307
0.3772334921
0.3513472985
0.3887729585
0.4195216572
0.4174940945
0.4426425513
0.3919711009
0.39826962
0.4204445726
0.423099852
0.4387170111
0.4259885089
0.4195869889
0.4223222947
0.4252751801
0.4352346678
0.4409325917
0.4257320625
0.4164521433
0.4040310888
0.4028296855
0.4277589782
0.4172938607
0.3965352176
0.4123064961
0.3967884573
0.4003839391
0.4093862057
0.443204351
0.4503303293
0.4146192007
0.389220863
0.3710162607
0.388717886
0.3901108714
0.4146267148
0.4297255986
0.4006864876
0.4047358703
0.4377947481
0.4156674732
0.4184284099
0.3903721935
0.4251068238
0.4173794227
0.4306758843
0.4237971576
0.3848566131
0.3489872052
0.3498761947
0.3387423536
0.3802447605
0.396440719
0.4201363688
0.3878724432
0.3840250592
0.3703484546
0.4331504306
0.4291092796
0.4266055557
0.4327916185
0.4293568407
0.41859898
0.4259931801
0.4189305512
0.4139982905
0.451086114
0.4342358546
0.4018296238
0.4032173215
0.3931478533
0.3910535579
0.3669165466
0.3991642483
0.4148752368
0.4314203284
0.43852437
0.400321175
0.4013741222
0.4200656721
0.4039375897
0.3766288533
0.3958640702
0.3542507767
0.3990985142
0.4346340257
0.4073191945
0.4274968626
0.4218215796
0.4004915471
0.3853917805
0.4063798112
0.4198424595
0.437768436
0.4370867056
0.4245201222
0.4212742334
0.3840371613
0.3916289025
0.399103999
0.429964013
0.4268263162
0.4323044957
0.4393071311
0.420976532
0.4110669673
0.404960926
0.3968477735
0.3979761425
0.4199779975
0.4285237124
0.4291341467
0.4507749422
0.4328639089
0.4350449658
0.4104760481
0.419577434
0.4057654016
0.3910434294
0.3828951692
0.3989303944
0.4312537615
0.4432340111
0.4281617245
0.4132004518
0.4184691831
0.4626318217
0.4132750827
0.4305690336
0.4156553138
0.4120043263
0.4722916402
0.447496257
0.4346671089
0.4222339271
0.4565952001
0.4478334894
0.4528258016
0.4486010094
0.450353736
0.430569846
0.4121479674
0.4163664501
0.4499766383
0.4810526123
0.4835239634
0.4266997315
0.4442987602
0.4163807935
0.4171848656
0.4108339822
0.3850942329
0.3906313164
0.4175372898
0.4198771014
0.4486185474
0.4426121841
0.4368298824
0.4251967268
0.4626758278
0.4723381678
0.444140133
0.4257153509
0.3887222368
0.3900077587
0.3902431241
0.3940144263
0.4226064729
0.405187099
0.4233095683
0.4061157106
0.3979212791
0.4099574012
0.4134262547
0.4539718274
0.4304241621
0.4394517964
0.437151295
0.4581122718
0.4023899583
0.4058391688
0.3943480251
0.4009563787
0.4146989745
0.4118297542
0.3915088522
0.4112489588
0.4099004136
0.4118651385
0.4196604375
0.3929697291
0.3847956755
0.4044046807
0.4245824218
0.4270024232
0.4454788928
0.4448312583
0.4311955424
0.4180542798
0.4170172172
0.4226851723
0.4075463752
0.4092104335
0.4144134256
0.4349191419
0.4371497769
0.4234082277
0.4085742076
0.4414161944
0.4167978465
0.4387018058
0.4248877058
0.4545686719
0.4730034729
0.486496972
0.4507504941
0.4373586512
0.4458493765
0.4317492683
0.4340940298
0.4118143267
0.406560888
0.4178807113
0.4251829036
0.3953302422
0.412630079
0.4316932103
0.418513992
0.4099967121
0.4475654901
0.469011973
0.4635489744
0.4420640939
0.4319785475
0.4090124899
0.4406628129
0.4570473767
0.4418464704
0.4280176731
0.4325041556
0.4525575356
0.4288248004
0.4166471593
0.4094676743
0.4184984163
0.4248056193
0.4508511836
0.4288385497
0.4073170586
0.3808341953
0.4052283938
0.4306242978
0.4173814632
0.4155385999
0.4452550223
0.4536026775
0.4410732692
0.455887544
0.4834574129
0.4675682299
0.426281533
0.415976069
0.4332625658
0.4708755033
0.4765381437
0.479779914
0.4227520411
0.4457005824
0.459440352
0.4486335896
0.4247000296
0.3928554543
0.3933638743
0.3931452153
0.4029680861
0.4224700541
0.4069858113
0.441273837
0.4221124819
0.408750398
0.4269510006
0.447060857
0.4491416451
0.4349423037
0.4405853242
0.4318474542
0.3962842567
0.4071645158
0.4174020146
0.421695639
0.4416762684
0.4249677801
0.416364618
0.4318687158
0.4095092594
0.4160675963
0.4098094819
0.3939095825
0.4163389559
0.4392735311
0.4218546267
0.3957684066
0.3948285462
0.3901797065
0.3775880036
0.3841569903
0.4021261811
0.3773671474
0.3886145835
0.3822797297
0.3803917608
0.4359166998
0.4442392779
0.4577193224
0.4437365433
0.4749019423
0.4171943976
0.3972681232
0.393217588
0.3766118424
0.3816499285
0.3907441299
0.4249269856
0.4236615875
0.4354529096
0.4240928669
0.413467128
0.402293433
0.4021665069
0.4027390427
0.4240654616
0.4156357328
0.4345294488
0.4161754368
0.3994023865
0.3681517798
0.3954214732
0.4168380887
0.400983375
0.4364604492
0.4248608647
0.4013101582
0.3994689941
0.4097854121
0.4260172646
0.4186498224
0.4130321396
0.4024678626
0.4337602054
0.4344142858
0.4390762878
0.4446544158
0.4235112273
0.4167705175
0.4096713388
0.387111766
0.3679715725
0.3625818675
0.3886313183
0.3964607486
0.423104663
0.4692230761
0.4734329746
0.4549875324
0.4356180029
0.4030703299
0.3911765955
0.4045713628
0.403639953
0.4022415326
0.4036351382
0.3864739042
0.4026483828
0.4103342121
0.3982197115
0.3648727241
0.3573442161
0.3779400906
0.4035804949
0.4138644276
0.4539871379
0.4738934731
0.4665358056
0.4396230903
0.4270106445
0.4032629433
0.4358241822
0.4234419333
0.4210226971
0.4015891895
0.4327326804
0.4285190007
0.4089409047
0.3836259987
0.3751370061
0.3684708924
0.358740316
0.3607066559
0.3785505547
0.4006842135
0.4147667743
0.4378651804
0.4724904403
0.4780601064
0.4569138932
0.4269474808
0.4251563526
0.4126965936
0.3986397138
0.4194771735
0.4420259488
0.4522968205
0.4401066063
0.4413213916
0.4234015994
0.4155979921
0.4067144442
0.4256361626
0.4378475739
0.4173848854
0.423645617
0.4146390085
0.3797462108
0.4285720402
0.4054698266
0.4298640129
0.4078144424
0.4346525517
0.4413185131
0.4435227655
0.4432125146
0.4088930319
0.3963168887
0.3985077
0.3950519225
0.3953733059
0.408058212
0.4037931463
0.4225334525
0.4293165084
0.4149146342
0.4256413633
0.458910167
0.4592104565
0.4278798167
0.3954743175
0.4525602041
0.4528730909
0.4558544575
0.4308975868
0.4536172287
0.4453937768
0.4609105709
0.4527437338
0.4351393883
0.425648592
0.3757086153
0.3759750515
0.3747014439
0.3918620512
0.4198316981
0.4193488111
0.402830578
0.4295415327
0.4438279331
0.4608923697
0.4265235955
0.4247018522
0.4337065059
0.4328940097
0.4233722898
0.4295145989
0.4299579459
0.4029041848
0.4015840415
0.3739492795
0.397516561
0.3933393238
0.398351352
0.3683636548
0.3673008988
0.3973142759
0.4237515832
0.4168052035
0.4323024976
0.4309133877
0.4447300844
0.4252718602
0.4320644122
0.4438400319
0.4390853373
0.446871784
0.4314947878
0.4069104749
0.3811353675
0.3953770901
0.4059553708
0.399784689
0.3900030174
0.4056125653
0.4347394368
0.440239045
0.4429722225
0.4096636852
0.405143183
0.4213916094
0.422931518
0.4740742042
0.479911645
0.4660935043
0.4311673489
0.4334820878
0.448525051
0.4198493351
0.4067858371
0.4154529634
0.4004553018
0.4128838261
0.3880387613
0.3796977991
0.3778507829
0.3945892275
0.4155840286
0.4398972018
0.425014906
0.4222222901
0.4316578416
0.4313354757
0.4191795579
0.4518092132
0.4723450108
0.4643541327
0.3984296902
0.4119441475
0.4133899671
0.455182553
0.4476272326
0.4079901081
0.3897138514
0.3932015692
0.4156652944
0.4205385785
0.4232152888
0.4004425166
0.4119577279
0.4281871022
0.4390494141
0.4055195857
0.4155390865
0.4096701169
0.4149541212
0.4198037327
0.4594934236
0.4668900035
0.4699514026
0.4096573065
0.4223886393
0.4509074106
0.4517178426
0.4455165433
0.4363239524
0.4294264831
0.4444919382
0.4383992907
0.4489197579
0.4374948406
0.413314978
0.448408862
0.4609537389
0.4101871552
0.4126074454
0.3937410903
0.3992890073
0.3754104889
0.3530114456
0.3527599999
0.3871292404
0.3702485224
0.393488324
0.4185176385
0.4349411919
0.4398791942
0.4315612299
0.4003244616
0.4097046053
0.4125360746
0.3719325433
0.3685843694
0.3985748194
0.4209201011
0.4307809196
0.4474335733
0.4108368224
0.3815265
0.3840950967
0.4155586636
0.4211918881
0.4130796219
0.4369234015
0.4312914074
0.4058564973
0.4149045136
0.4116617561
0.3929016203
0.3623132628
0.3783316213
0.3819304415
0.3776755055
0.3753442857
0.3786707637
0.3749684403
0.3451923169
0.380465359
0.4062192852
0.4184832849
0.4307901011
0.4318339667
0.4164714947
0.3814919988
0.3949478227
0.4257652967
0.4476594522
0.4328195584
0.4051932008
0.3925026416
0.397196746
0.3733492989
0.3861870125
0.3767305285
0.4102688095
0.4070913735
0.3961429051
0.3900780218
0.4120922175
0.4033933545
0.4005155795
0.3966138316
0.4267153455
0.4543925069
0.4359470537
0.4033316768
0.3861883743
0.4100610223
0.4222514408
0.4093979603
0.3901805944
0.445327723
0.4509300047
0.4191447142
0.399237926
0.3663822666
0.3621174444
0.3677163796
0.3822970091
0.4206004561
0.4330553385
0.4311783287
0.4224896339
0.4056970958
0.396488272
0.3856236754
0.3851502943
0.3786995755
0.374645431
0.363578161
0.4158058902
0.3943484681
0.4056061403
0.4182421124
0.4088867347
0.4001709469
0.402276066
0.4152857814
0.3885391871
0.4158267236
0.4206126396
0.3982844956
0.3908867003
0.3858792192
0.3909979025
0.3989593153
0.3994903467
0.4074249247
0.4263747115
0.445714669
0.4205703632
0.4556446885
0.46185007
0.4307622156
0.4372858866
0.4129393282
0.4235721449
0.4151589862
0.4159237926
0.4265959498
0.4563028766
0.4758822247
0.4630573797
0.4505232756
0.4336770598
0.3906901797
0.3917966729
0.3979081997
0.4097757261
0.4167708231
0.4553856008
0.3903345434
0.424941884
0.4099632377
0.3867234371
0.4068577005
0.4049147414
0.392541441
0.399123391
0.4114895169
0.4266405204
0.4248580437
0.4183224046
0.3989698024
0.4111475043
0.3960137583
0.4042902738
0.4012648124
0.4033313729
0.4216492004
0.4118855793
0.4335068369
0.4257909351
0.4501944575
0.4353236225
0.4184762257
0.3956582199
0.3963484177
0.4047341738
0.4136067222
0.4324976837
0.4276764809
0.4238764645
0.4051572738
0.418890643
0.4208876077
0.3850528171
0.3876432794
0.3904845861
0.4183652058
0.4235467263
0.4178128773
0.3966460566
0.382906636
0.3842004536
0.4094278181
0.4297768349
0.4225583986
0.3874148364
0.3895753348
0.3959039059
0.4389902524
0.4427050564
0.4182089836
0.4086316767
0.3994483602
0.4189406307
0.4147850828
0.3980809264
0.3773890593
0.3863799777
0.4307936212
0.4259631391
0.4329303328
0.453959694
0.4162908409
0.3887469431
0.4164902864
0.3982588576
0.394233832
0.4091864549
0.4300852344
0.4050472028
0.398915415
0.403762439
0.3923359512
0.390309828
0.4081612357
0.4329701973
0.4253788887
0.4514625403
0.4636957309
0.491599622
0.437836957
0.4275981168
0.4266916978
0.4705893755
0.4285090604
0.3975318873
0.4042949346
0.4099451898
0.4087613229
0.4315730515
0.4383850662
0.4736201157
0.4455462782
0.4446045172
0.4385031028
0.4389383736
0.4491504004
0.4308356875
0.4344049695
0.424702388
0.4179193444
0.4213768671
0.442392896
0.3958037987
0.3901996826
0.4000341012
0.3973165247
0.3877088473
0.3921748904
0.4112728963
0.4135173832
0.4339288706
0.425439205
0.4331013176
0.4172826677
0.4416163325
0.4577277331
0.4465191877
0.459919528
0.4485297479
0.4530952334
0.4835991382
0.4536488459
0.4613553752
0.4528998624
0.4446728276
0.4415617467
0.4446434392
0.4194231412
0.4245745854
0.4235611761
0.4358485067
0.4423366753
0.4552834376
0.4190830615
0.4049624073
0.4357924901
0.4592183397
0.4236219555
0.4265414509
0.4223224852
0.4040720325
0.4241058845
0.4028239824
0.4319605086
0.4506795408
0.4207682668
0.405061102
0.3995665513
0.4238206781
0.451856496
0.440500721
0.4470893612
0.4421405121
0.4399452349
0.4383005641
0.4057836823
0.3910568322
0.4408243567
0.432590121
0.4236487622
0.3924134418
0.3972770729
0.419843108
0.4321406576
0.4258572108
0.4067769024
0.4080538344
0.3980394948
0.3892896049
0.3649847668
0.3676927026
0.3897950115
0.4051630073
0.4205847742
0.4258505339
0.4644077662
0.4411834963
0.4332224638
0.420854128
0.4190344162
0.4113371784
0.4238232759
0.381821484
0.347903638
0.3709845416
0.414175353
0.3967810545
0.3939794222
0.3805604745
0.4216606236
0.4075567568
0.4255110917
0.4052512121
0.4265179775
0.4232051017
0.4039327346
0.4239726687
0.437696761
0.4374006612
0.4063922529
0.4172822427
0.3916822847
0.3894025241
0.4400297759
0.4253644233
0.389354937
0.3729827561
0.3830162019
0.3995871668
0.4022792882
0.4072870567
0.4317230592
0.4281685619
0.4328822697
0.4316204298
0.4263527788
0.4342672099
0.3949442564
0.3783202095
0.398432038
0.4026716848
0.3976219524
0.4023813788
0.3604454297
0.3788496444
0.4238893639
0.4217417236
0.3961279712
0.3930603486
0.3967396265
0.3877752831
0.4051865668
0.4167233308
0.4110252621
0.4113221543
0.4252240165
0.4267143951
0.4079288246
0.4123465629
0.3733347856
0.3641621047
0.3879952233
0.4157694733
0.4472157435
0.4303659563
0.417659151
0.3966809684
0.3979308506
0.4130968684
0.4146433355
0.4075093072
0.3839445764
0.3874343113
0.3789920758
0.4076857085
0.3947770777
0.4144470712
0.3818319279
0.3823151644
0.3908679647
0.3795824796
0.3710890539
0.3896819164
0.3981080938
0.4173139626
0.4334111781
0.4204694921
0.4287906273
0.4058894815
0.3980973099
0.3972048559
0.4220098368
0.4089066457
0.4110843279
0.4029731678
0.3870983158
0.3914791812
0.4244591664
0.389179361
0.3937293786
0.4270649568
0.4491886881
0.4431002307
0.4353355904
0.4220208058
0.4029428561
0.4087842236
0.4023497113
0.4178930285
0.4113389619
0.4213370648
0.4190792478
0.4009234802
0.4017515726
0.3956919964
0.4045122188
0.4175236539
0.4110190285
0.4477764265
0.4739731325
0.5005219377
0.4784710724
0.4739568602
0.456256493
0.478596436
0.450167756
0.4163520012
0.420895728
0.4145153672
0.4387363623
0.4258859024
0.3916259322
0.3739879047
0.3795789653
0.3841472682
0.3881462706
0.3864183059
0.4076581449
0.4147205341
0.4097662293
0.4065219262
0.4245792616
0.4193464175
0.4490742072
0.4363908172
0.411912797
0.4060910289
0.4000078632
0.4131196819
0.426440944
0.4186140097
0.4105431846
0.4277577735
0.4405190518
0.4304334311
0.408564348
0.4151612619
0.3954806905
0.4283664956
0.4256006367
0.398703054
0.4097445507
0.4130984732
0.412634702
0.4513548825
0.4747596396
0.4292426883
0.3926635621
0.397862639
0.4031196299
0.3807452101
0.3807533447
0.4016710709
0.4081871974
0.4065539849
0.4281298984
0.4104518859
0.4378611541
0.4146991947
0.396006938
0.4225671838
0.4254772236
0.4310519732
0.4315546098
0.454611007
0.4252601573
0.438651059
0.3926129508
0.3893830733
0.3944905419
0.3971410942
0.3947959945
0.4140978704
0.4466530142
0.4597596081
0.4340620366
0.4352121344
0.4570977059
0.4372989324
0.3946135459
0.3891980093
0.3916383943
0.3965385573
0.384737186
0.3970193496
0.4124006867
0.4381089692
0.4498449244
0.4355585037
0.4502392528
0.4376966136
0.4440617642
0.4325014374
0.3967615342
0.4194059116
0.4189372033
0.4483751559
0.414711345
0.4401435247
0.4641937567
0.4653482501
0.4483151121
0.4235449734
0.4342320832
0.4038485761
0.3964615962
0.372647034
0.3930696525
0.4000151992
0.4102944795
0.3932427187
0.4066272723
0.382975967
0.3914083708
0.3764859919
0.4024070746
0.4007998402
0.4357678941
0.4161409157
0.4146897951
0.3908779853
0.4111296628
0.4038611852
0.4077583327
0.4507544989
0.4449721575
0.4161977805
0.4067470868
0.4187292922
0.3906884292
0.4218201724
0.417209986
0.4248691013
0.4311895262
0.4629738326
0.4556003871
0.4385698386
0.429837817
0.4093831882
0.428129445
0.4293459317
0.4240475783
0.4486517314
0.4393092547
0.4140450587
0.4204024501
0.4362716624
0.43447168
0.4334647048
0.4742842055
0.4621207225
0.4433514477
0.404482344
0.4412220096
0.4232352427
0.4220446679
0.4307018161