/*--------------------------------*- C++ -*----------------------------------*\
| =========                 |                                                 |
| \\      /  F ield         | OpenFOAM: The Open Source CFD Toolbox           |
|  \\    /   O peration     | Version:  2.4.0-MNF                             |
|   \\  /    A nd           | Web:      www.OpenFOAM.org                      |
|    \\/     M anipulation  |                                                 |
\*---------------------------------------------------------------------------*/
FoamFile
{
    version     2.0;
    format      ascii;
    class       volScalarField;
    location    "0.001";
    object      p_N2;
}
// * * * * * * * * * * * * * * * * * * * * * * * * * * * * * * * * * * * * * //

dimensions      [1 -1 -2 0 0 0 0];

internalField   nonuniform List<scalar> 
5120
(
0.3409254294
0.3081648153
0.2995474672
0.3232478578
0.3269561612
0.3244103354
0.3109357365
0.3178768518
0.3267900519
0.3208714507
0.314803437
0.3174357904
0.3378250787
0.3413663183
0.3310602601
0.3414903921
0.3475596462
0.3325698537
0.3198778398
0.3164681082
0.3166247436
0.3139383469
0.339054808
0.3559469546
0.3438493732
0.3303278443
0.3443763995
0.3658256076
0.3291072027
0.3218092588
0.3352076699
0.3452548555
0.3330608686
0.3120469481
0.2847437996
0.3197644414
0.3307929148
0.3377140772
0.3364591262
0.3298653084
0.295404482
0.2899735285
0.307739481
0.3161223006
0.3425346469
0.3465601025
0.3302634373
0.320246408
0.3236801003
0.3388937703
0.3491356746
0.3550684788
0.3577282438
0.3704744584
0.3567197901
0.3475779805
0.322181357
0.3538888142
0.3452311667
0.3133628929
0.2955318879
0.3051419632
0.3334329109
0.3568450265
0.3363842272
0.3151657767
0.3378060027
0.3183970767
0.3178397952
0.3298000409
0.3321335465
0.3183760784
0.3079269545
0.2889366481
0.3222814715
0.3155678465
0.3383171905
0.3266800632
0.3183127339
0.3084489748
0.3280264514
0.3209828642
0.2998038987
0.2980094877
0.3227441256
0.3468984504
0.3203640991
0.3231101989
0.3365379842
0.3261285061
0.3349961738
0.3032891738
0.3103111544
0.3076107124
0.330973091
0.3276874587
0.3506851143
0.360594731
0.3351964423
0.3283059141
0.3103452383
0.3177666453
0.342587259
0.3526306571
0.3281938808
0.3142570941
0.3233451198
0.3065948022
0.3059679117
0.3003358571
0.3133704521
0.3306594998
0.3079141723
0.3001726027
0.2995964265
0.3374578733
0.3351204681
0.3241937918
0.3306212394
0.3297402468
0.3278913666
0.3021665432
0.3253509592
0.3424201433
0.3501960777
0.3538193372
0.3046160926
0.3342450545
0.3405932131
0.3506308978
0.3474855049
0.3285283427
0.321284334
0.3427792637
0.3588759407
0.3607625714
0.3514505741
0.3866377286
0.366146489
0.344530525
0.3487591292
0.3284062233
0.3269513843
0.31588478
0.3426339455
0.3351255934
0.3460689285
0.3213292184
0.31771771
0.350457279
0.3549607351
0.3315421331
0.3626622729
0.3514389227
0.3695879207
0.3861084846
0.3975813886
0.354395174
0.3438606034
0.3358447036
0.2978058875
0.2702613635
0.2746639965
0.2846449032
0.3143997127
0.3474783237
0.3654659912
0.3508202088
0.3391703924
0.336823567
0.3491128567
0.3648051396
0.3489701032
0.335632992
0.3410704737
0.3145925913
0.3306891684
0.3157512947
0.3348858314
0.3288626907
0.3291904264
0.3232641911
0.3130631594
0.2778204055
0.2930092277
0.2868749774
0.300193946
0.305790217
0.3042053524
0.3021260239
0.3262496767
0.3213348491
0.3439508521
0.3301002153
0.3258286544
0.3351884255
0.3327261032
0.306013285
0.3009431697
0.2956450784
0.2974336995
0.3045609869
0.3004070646
0.320494246
0.3161752752
0.2960416994
0.2971133531
0.2904904817
0.2822135447
0.3153313598
0.3182865277
0.295991994
0.2873808883
0.3123194199
0.3377466878
0.3364043059
0.3170559213
0.3446935105
0.3459485115
0.316148097
0.3338910605
0.3119264933
0.2971564748
0.289782891
0.2995577064
0.3002321054
0.2866395909
0.3069165025
0.3216066577
0.3117349201
0.3132488352
0.3215408209
0.3226145832
0.3039932614
0.3280660848
0.319669585
0.3280348745
0.3086504177
0.3159794342
0.3450239265
0.3015743067
0.3101942011
0.2949866831
0.273182173
0.292899576
0.3035362172
0.293426804
0.3079623491
0.3116659824
0.3145540715
0.3115722112
0.3291959376
0.3279476307
0.3119524803
0.287572868
0.2925067922
0.300092035
0.2958605168
0.3045675648
0.296398942
0.2973616709
0.2848646364
0.3020164997
0.3338418065
0.3308269411
0.3303580371
0.3175986525
0.3464569799
0.3626490382
0.3426137556
0.3192874375
0.3061241715
0.3051749703
0.3131288557
0.3259064388
0.3031998847
0.3045581248
0.3016803427
0.2646057298
0.2972402627
0.3265382719
0.3305918499
0.304397971
0.2808992922
0.3267406055
0.3222087183
0.3181145224
0.2973516483
0.3001852945
0.334631533
0.3135963192
0.3071525466
0.2922851558
0.2842097178
0.2909966899
0.2995266071
0.3061513471
0.3298259646
0.3406060019
0.3259705178
0.3391894539
0.3382185162
0.3184621959
0.3132994361
0.3195639931
0.3130309176
0.3089720945
0.3365495561
0.3506742856
0.3115027278
0.3241259658
0.296547446
0.2949014555
0.3201273571
0.334549925
0.3166657015
0.3231038231
0.3212333692
0.3267173321
0.3550299893
0.3204729363
0.3331321295
0.325254711
0.3207868509
0.3259454614
0.3695868239
0.3439950782
0.3345355045
0.2990028166
0.3075332728
0.3156024141
0.3146117121
0.292624613
0.3311864577
0.35655371
0.3480336114
0.3068549807
0.2995608577
0.3001444961
0.3161809719
0.3393432991
0.3388847254
0.3520081696
0.3318553261
0.3357436487
0.3228236444
0.317656343
0.3096290216
0.3212092789
0.3309068268
0.3137639274
0.3001682021
0.2876305335
0.2743995889
0.3005079476
0.3279952505
0.3278673963
0.3287436721
0.3425456203
0.3302717409
0.3041169469
0.3153946004
0.2938567391
0.2834935118
0.3019830709
0.3061834141
0.3166134697
0.2893221039
0.3134382924
0.305151093
0.3102335917
0.3173784526
0.3241168521
0.3186511473
0.3257279827
0.3076135893
0.3095680927
0.3155245369
0.2974975073
0.3005237569
0.2981108669
0.302218934
0.2960049779
0.3080449168
0.3282810024
0.3408606273
0.3522695292
0.3430762411
0.3172878296
0.3008280017
0.2994632682
0.2960444194
0.3144853111
0.3164125373
0.3055309754
0.3118322364
0.2915079859
0.2840713876
0.2752981062
0.2798540713
0.2992657388
0.2945909009
0.3152041021
0.3356828225
0.313408528
0.3294605676
0.3195288561
0.3134716482
0.3175453301
0.3061572216
0.3071052918
0.2769826737
0.2982599656
0.314897583
0.31079452
0.2981827444
0.3257439888
0.311436073
0.3075215941
0.3202452348
0.3331909576
0.3254895115
0.3028171133
0.2851468266
0.2618770482
0.2646518961
0.2489115868
0.2516574438
0.296946651
0.306083971
0.3043117857
0.3028955302
0.3004090684
0.3051031619
0.2942723352
0.2992249524
0.2996707774
0.2801284289
0.2858145387
0.3006711255
0.3353262471
0.322486419
0.3244306743
0.314071509
0.3046054964
0.3128077838
0.3311956328
0.3353534158
0.3184029507
0.3120615931
0.2866866253
0.3114232855
0.3250578681
0.3203821132
0.3089531678
0.3070676313
0.3480257176
0.3316748805
0.3127348637
0.3347878728
0.2975451152
0.3326383781
0.3261590211
0.3542662809
0.3347313702
0.3160648258
0.3239226318
0.3374760171
0.3360234856
0.3221842348
0.3467048143
0.358945645
0.3350103385
0.3189783761
0.3615455847
0.3635954427
0.3394379179
0.3312270297
0.3164939242
0.3029141213
0.312730438
0.3009312022
0.3263042135
0.3195331244
0.3202377988
0.3088140335
0.3247871371
0.3089357186
0.2936145268
0.290077847
0.2682006155
0.2543984807
0.3074398415
0.2990164193
0.3151230687
0.3049363426
0.2794873307
0.2976525078
0.3187850608
0.3008306386
0.3081087784
0.3124096508
0.3354741489
0.348355266
0.3423970678
0.3611582862
0.3378600404
0.3573108684
0.3775491837
0.3385989547
0.3158468181
0.327670139
0.3123797132
0.3138714968
0.3038260971
0.2862929611
0.3056690065
0.3046802994
0.3082438207
0.3230987579
0.3429782029
0.3424297899
0.3124871432
0.3311379265
0.3275876361
0.3079541845
0.3008086086
0.314163453
0.3396403517
0.3586384477
0.3616911373
0.3520635783
0.3730972329
0.3343823067
0.3419145124
0.3213030782
0.3222760551
0.3147165932
0.3357412859
0.3562199559
0.3161899987
0.3156469988
0.2976064978
0.2798678831
0.2700338159
0.2876656987
0.3301367883
0.3290616126
0.3419993219
0.3534507224
0.3457090408
0.3458437496
0.3263361651
0.3302954739
0.3160170676
0.3342349836
0.3205140277
0.3279806809
0.3294615245
0.3314682002
0.2967967359
0.3079545673
0.3360740989
0.3354924356
0.3363803262
0.3263440843
0.320534847
0.2955465479
0.3198095894
0.3271012305
0.3335792388
0.3138133225
0.3330172891
0.326941742
0.3105421195
0.2995699093
0.2999680482
0.3205852119
0.3083758823
0.2895372489
0.3517001528
0.3461743009
0.3276567486
0.316955027
0.2956766495
0.3173243207
0.317534304
0.3037768493
0.2883321264
0.2852670344
0.3217521414
0.3249003115
0.3027113288
0.3209019589
0.3286097203
0.3255823626
0.3253428428
0.2970676123
0.3109363793
0.3593033257
0.3035265269
0.3153556799
0.3415791197
0.3369958637
0.3096178176
0.2961009756
0.3013090064
0.3273550406
0.3564515147
0.3418354213
0.3286019115
0.3044778583
0.31579365
0.3314516045
0.3057759502
0.311715527
0.3081894979
0.3241873386
0.2995267456
0.2878290524
0.3176123475
0.3078852075
0.3184652127
0.3074488318
0.3113922415
0.3094410796
0.3152335543
0.3057111535
0.3140181506
0.308860372
0.3300514534
0.3522874658
0.339033348
0.3068046258
0.3013560056
0.3164376569
0.3190778156
0.3207868018
0.3119668977
0.318659527
0.3298532446
0.30089125
0.2812101168
0.2897711385
0.290015811
0.2967751236
0.3048435051
0.2711020882
0.2723851093
0.2883809213
0.3076147794
0.3080306679
0.3138749344
0.301950484
0.3183923995
0.3381688049
0.332631285
0.3449299847
0.336617325
0.3241249519
0.3261067527
0.3133022671
0.3463418906
0.3189745593
0.3235578342
0.3228037859
0.3298649338
0.3432153231
0.3438798092
0.3200085189
0.3178166982
0.3076630653
0.342807124
0.3375303341
0.2985841151
0.2738103784
0.3032086693
0.3178798463
0.3309776602
0.3310500262
0.2932890766
0.3051967933
0.3095140181
0.3335960597
0.3506156478
0.3426525821
0.3070887817
0.3271227126
0.3356742767
0.3138776035
0.2966295335
0.3187811052
0.3147676027
0.3125001909
0.3469390156
0.3470896357
0.3229141334
0.2909406649
0.3065210763
0.2796023364
0.3058631206
0.3181035926
0.3282691079
0.3057413691
0.3103673606
0.3106221705
0.3221380005
0.3235006464
0.3088139566
0.3291301193
0.3227050635
0.3012057829
0.2822145901
0.3022808424
0.3004851584
0.3013182703
0.33293235
0.3283813053
0.314503202
0.3157312648
0.3239375251
0.298233649
0.3063099945
0.3266877041
0.3198536711
0.3378520618
0.3194349642
0.3299908696
0.3167610024
0.3179044856
0.3026445703
0.3343800809
0.3420401118
0.3172774047
0.3250069783
0.3117924321
0.306009283
0.3131761723
0.3119892425
0.3204377093
0.2938507041
0.295641161
0.2946581168
0.2992227158
0.3102201789
0.2993874021
0.3220663352
0.3276869851
0.3178228013
0.3087366865
0.3142348021
0.3258461663
0.3278400611
0.3258391084
0.302497713
0.2828487884
0.281178203
0.2967103363
0.300634061
0.3028360711
0.3379370164
0.3133059722
0.3050275657
0.3178550912
0.3459852538
0.323399972
0.3013129656
0.289831332
0.3035236596
0.3067441903
0.3189095304
0.3141508277
0.3403511013
0.340673314
0.3100784261
0.3280750295
0.3275706581
0.3152968737
0.2969831506
0.3021501949
0.3041502241
0.3222467082
0.3391782243
0.3318976523
0.3458142057
0.3836881307
0.3709030198
0.3427738854
0.3382622713
0.3057901412
0.2970735821
0.3142875463
0.3285989879
0.3349923541
0.3591192501
0.317800476
0.2929453312
0.2951595425
0.2930136502
0.3007772279
0.331340327
0.3291600683
0.3202649066
0.301044707
0.3034870326
0.3227419609
0.2983511466
0.3118001448
0.3151583601
0.3153997473
0.3064076459
0.3237717554
0.3370582465
0.3127335732
0.2724559342
0.2920281859
0.3130229056
0.2969595982
0.302944281
0.305698858
0.3226140504
0.3308014818
0.3306914745
0.3281407851
0.3165822853
0.3097435771
0.3157891195
0.3028981427
0.2847314744
0.3078620324
0.3066142763
0.2886659101
0.2997570359
0.2887227878
0.3037934398
0.3066440106
0.2810147073
0.2882095077
0.2945020582
0.3257507748
0.3242782458
0.3067136582
0.3407358545
0.3529437241
0.3472146122
0.335900599
0.3249755809
0.3146193529
0.3035634217
0.3217264437
0.3227764082
0.3226472645
0.3225171629
0.3445384524
0.3238862872
0.3319806412
0.3358061825
0.3556285626
0.3203375927
0.3061083711
0.3185971315
0.3379811821
0.3563144107
0.3518683558
0.3058782545
0.3083368154
0.3109749582
0.3223942836
0.3142819171
0.3111020116
0.3219572341
0.3195674973
0.307282201
0.3160247859
0.3307089437
0.341289998
0.3452866061
0.333579051
0.3425726174
0.3078443802
0.3236285982
0.3372477703
0.3243450756
0.3226882334
0.3206986859
0.3107644215
0.3085807192
0.3390818033
0.3154305197
0.3079569318
0.3118701453
0.3299830245
0.3270198133
0.3135294597
0.3229411886
0.3199140357
0.3054377203
0.3182461101
0.3127458885
0.3209728156
0.3346129511
0.3281954405
0.3337881388
0.3359741405
0.3376087344
0.3277160556
0.3405630419
0.3418800522
0.3405474801
0.3226409782
0.3137517627
0.3206637141
0.3387117533
0.3416071376
0.3489494583
0.3483862306
0.3396232548
0.3189591631
0.3417565384
0.3424838172
0.304516754
0.3106720512
0.338092676
0.3344135147
0.3389058357
0.3728547632
0.3502663292
0.3134977237
0.3055575901
0.3398986901
0.3474608278
0.365834023
0.3292753852
0.3152561599
0.3323894331
0.3534996058
0.3736037613
0.3414593719
0.3316481335
0.3136977139
0.2956930012
0.2880003138
0.3035494774
0.3229612276
0.3177541903
0.3048286662
0.3159408798
0.3464140963
0.343322514
0.3484171556
0.3353609625
0.3458764735
0.3562021143
0.3816828836
0.3750003651
0.347924061
0.3303926063
0.3187066412
0.3327932413
0.3072701666
0.3484354234
0.3389749583
0.3113660628
0.2938082533
0.2991695316
0.306374966
0.3229824905
0.3355176291
0.3298085619
0.3102969111
0.3285199849
0.349788824
0.3493451393
0.3419188228
0.341377051
0.3264725479
0.3303920369
0.3618911268
0.3794870945
0.3549406084
0.3155695571
0.3572563763
0.3357110209
0.3335999013
0.3254928426
0.3322882488
0.331888841
0.3196092021
0.3267386229
0.3473739192
0.3416110876
0.351057773
0.3336416181
0.3089534234
0.3087601335
0.3278569022
0.3142230779
0.3070765697
0.2862774028
0.3036983061
0.3264629041
0.34335413
0.3479360599
0.3550059389
0.3405563983
0.3451278509
0.3503580474
0.3521972809
0.3657883516
0.3509196592
0.3397151776
0.3072934002
0.3099984476
0.3211664036
0.3096767748
0.2944083888
0.28876027
0.2944461334
0.3130350171
0.3282656683
0.3155641656
0.3041755691
0.33626107
0.3467841946
0.3550342195
0.3667058792
0.3748640122
0.3779612269
0.3610488263
0.3299865367
0.3287903767
0.323470497
0.3133429942
0.3069169673
0.3002011012
0.3175935063
0.3503263491
0.3461394766
0.3317617703
0.2865526525
0.3140060432
0.3401304907
0.3224545625
0.3102887367
0.3265242675
0.3378139917
0.3359711813
0.3309433797
0.3382820327
0.3595870459
0.3492124824
0.3055320487
0.3260323191
0.3237114863
0.3393899272
0.3387253009
0.3217698715
0.3022639125
0.3023917057
0.2928496009
0.2995564032
0.2876172193
0.3034618644
0.3124290524
0.3082662605
0.3387646933
0.3479478241
0.3478739892
0.3238487107
0.3177670312
0.3321837362
0.3245914792
0.3141276855
0.3109118592
0.2855668994
0.2852517474
0.2600501502
0.294853726
0.3160247831
0.3064977697
0.3199137156
0.337027649
0.3228582305
0.314502314
0.2955448065
0.3183468379
0.3376372609
0.3172813892
0.3146253227
0.32557377
0.3276288867
0.3284472001
0.3139753904
0.2879420758
0.2797581214
0.2561224642
0.2990508976
0.3306860315
0.3406836835
0.3494207003
0.3070548263
0.3132752487
0.3317323838
0.3245441565
0.3396071045
0.3379320515
0.3402663146
0.3411450442
0.340364511
0.3421235681
0.3331535339
0.3261823838
0.3139173653
0.3077535147
0.3084315143
0.333439397
0.3223789067
0.3072911216
0.3214470903
0.3068355473
0.3030381354
0.3109591709
0.340680686
0.3593510637
0.3335193099
0.2982069892
0.2757495332
0.2994615794
0.2992600827
0.3221695177
0.3287518534
0.3041483094
0.3014259283
0.3314653666
0.3140624244
0.309352555
0.2859519468
0.3130465054
0.3228909003
0.336105113
0.342138279
0.3163266699
0.2848044195
0.2740916621
0.2697827761
0.3045376579
0.3045742427
0.3153114563
0.2958296352
0.2957081665
0.2884140121
0.3433548776
0.3163157643
0.3247013826
0.3272163451
0.3240921686
0.3300555729
0.3313761538
0.3252590949
0.3280766558
0.3435358205
0.3338875607
0.3046772723
0.3107338683
0.3097812344
0.3030577595
0.2893494666
0.3192953393
0.3224454411
0.337864537
0.3456429914
0.2987974878
0.3084670837
0.3319552762
0.3125575463
0.3042315034
0.3225118543
0.2881092242
0.3105184231
0.3375901215
0.3306248644
0.339054664
0.3215094014
0.3048430775
0.2987962183
0.3142861421
0.3255032503
0.3326886026
0.3369728272
0.3307798168
0.3214683679
0.2968843505
0.3159878547
0.3201749289
0.3405756018
0.3364489027
0.3508145296
0.365052538
0.3611414078
0.3487995014
0.3263119646
0.320861528
0.3168314609
0.3325699206
0.3372917764
0.3353195187
0.3562584682
0.347627931
0.3417049967
0.3304840222
0.3213297032
0.3122127674
0.307957522
0.3055086736
0.3051142767
0.3282963647
0.3329176894
0.3203288792
0.3092879541
0.3168873444
0.3622556815
0.3199759576
0.3333082145
0.3308805988
0.3322581968
0.3718644003
0.3491083449
0.3463574413
0.3416108176
0.3666274564
0.3575859282
0.3501518416
0.3438415344
0.3451436083
0.3371240058
0.3304324238
0.3227504062
0.361235989
0.3746957969
0.3839654058
0.3423481742
0.3541445393
0.3280736787
0.3187831421
0.3088071255
0.2988868079
0.2903204967
0.3240686696
0.3376270758
0.3514315084
0.3536716939
0.3503337213
0.3535690555
0.3902955294
0.3856173408
0.3525106456
0.3391188272
0.3092270704
0.3059849566
0.3058808028
0.3121312695
0.3448727868
0.3278885587
0.3401931616
0.3296636221
0.3103793939
0.3236066414
0.3218281391
0.3579631069
0.344157056
0.3510972353
0.3565187112
0.3811465615
0.321044404
0.3131029358
0.3068754116
0.309220901
0.3214066137
0.3130525794
0.310331528
0.3200765101
0.3224063011
0.3373687485
0.3357806858
0.3073288258
0.2987777472
0.3148749544
0.3295498908
0.3234258367
0.3397489161
0.3362156292
0.3296929412
0.303217306
0.3083249634
0.3068200252
0.3050680749
0.3137379458
0.3349653248
0.349321763
0.346055089
0.3232508597
0.3043017654
0.3387252192
0.3287598158
0.3409420267
0.3337274269
0.3524750756
0.3647377254
0.3763140171
0.3565184968
0.331928682
0.3381626746
0.3250306853
0.3231140168
0.3036640462
0.3048447098
0.3211933346
0.3362346455
0.3069433483
0.3009281813
0.3422453768
0.33274908
0.3162399063
0.3523055744
0.3643537833
0.3582260801
0.3459123936
0.3283634767
0.3114808654
0.3128669176
0.3412920841
0.3361840295
0.3304456781
0.3296287135
0.3544508458
0.3319848652
0.3192684809
0.3057383102
0.3216083621
0.3343647579
0.3444846847
0.3360028374
0.3203228897
0.3102286284
0.3247227378
0.3442847359
0.3310195923
0.3296360911
0.347756894
0.3536481174
0.3462506564
0.3587791207
0.387195376
0.3687289395
0.3310181427
0.3132427594
0.3375722634
0.3722478557
0.3697548594
0.3807212155
0.335445666
0.3555131388
0.3597512548
0.3509281143
0.34608149
0.3138708365
0.3109595679
0.314680762
0.3139848817
0.3299636397
0.3261210817
0.3613632129
0.3465320241
0.329364385
0.3394928779
0.3571014811
0.3580943646
0.3343842205
0.3446147997
0.3402609812
0.3094563207
0.3255141929
0.3248927128
0.3243555504
0.3349430033
0.3201206232
0.320876216
0.3421869161
0.3303636408
0.3312729908
0.3270693022
0.314524173
0.3411068492
0.3383807164
0.3348528802
0.3207755628
0.3172289465
0.3080839338
0.2922177463
0.3005706857
0.3159350848
0.2759739479
0.2738985854
0.2792307913
0.2826867358
0.3313669246
0.3341431346
0.3487849321
0.3451599292
0.3841571536
0.3299211249
0.3097345025
0.3077182844
0.3004437459
0.3001951978
0.3064500752
0.3192109336
0.317281462
0.3286273721
0.3322843802
0.3214383451
0.3100598283
0.3155492714
0.3117778388
0.3339012312
0.3268512866
0.3431742107
0.3235759761
0.3160247438
0.2839864216
0.3069976383
0.3253429096
0.3000522578
0.3237122187
0.3276019061
0.3205056374
0.3139580392
0.3114907143
0.3221528227
0.3276355089
0.3092114381
0.3132785944
0.3410793839
0.3494825771
0.3452396658
0.357947991
0.3333378754
0.3244698228
0.3063742388
0.2942662989
0.2793260981
0.2795342786
0.3048885435
0.3001105283
0.2940942826
0.3442079827
0.3465971493
0.3438382794
0.3270106996
0.2906651552
0.3090106631
0.3283488757
0.3352680822
0.3210781811
0.3102120085
0.2864197165
0.3110531232
0.3276754159
0.308577683
0.283397402
0.2732036079
0.2922465594
0.3114290142
0.3132362002
0.368163476
0.3748472176
0.3579650801
0.3447958577
0.3335358543
0.3129725696
0.3551812436
0.3181435912
0.3245672009
0.310085146
0.3277826651
0.3289901191
0.3080847605
0.2914197606
0.2778385972
0.271275734
0.2645050073
0.2697666873
0.2905935734
0.318380938
0.3314075892
0.350099796
0.3778539613
0.3746397863
0.3561723326
0.338909659
0.3315587918
0.330434775
0.326476845
0.3416020914
0.3584910646
0.3607542766
0.3484552881
0.3313157056
0.3262000355
0.3247061954
0.3215167906
0.3527650263
0.3522468364
0.3285549977
0.3360476193
0.3319861859
0.2946234505
0.3341467475
0.3083049408
0.3279248997
0.3147273088
0.3369697089
0.3351890764
0.3360712207
0.3440707869
0.3167002509
0.3119427332
0.3213449375
0.3113860999
0.3073203162
0.3245093294
0.317518361
0.3396194503
0.3290646606
0.3153422156
0.3229779676
0.3581551743
0.3541847846
0.3258898206
0.3046053458
0.3494361247
0.351532755
0.3500814035
0.333357881
0.3456670338
0.3475307148
0.3590677043
0.3474788
0.3312860236
0.3334005255
0.2984731042
0.290242301
0.294850579
0.31348265
0.3326508407
0.3329564512
0.3188170668
0.3426758833
0.3506407545
0.3615004509
0.3419882705
0.3438941211
0.3521918607
0.3426433613
0.3299318031
0.3512085368
0.3570640093
0.332493457
0.3132456492
0.2974158612
0.3182389586
0.3153436846
0.3229226361
0.2867283797
0.3041298188
0.32042976
0.3386881291
0.3265796894
0.3442061241
0.3472375193
0.3595770116
0.3408642599
0.3393731456
0.3531256844
0.3540676114
0.3562498589
0.3476650674
0.3270516986
0.3080004227
0.3162771337
0.3054734142
0.3001485301
0.2915310288
0.3170401146
0.3414982072
0.3370503286
0.3352284597
0.3036242327
0.3115793121
0.3198226015
0.3480232015
0.3800794694
0.3861444739
0.3771848422
0.3422057981
0.3361549722
0.351192797
0.3242867973
0.3121152361
0.3128160856
0.3042487309
0.321843858
0.2992956638
0.2969912585
0.3003202429
0.3066958407
0.3295874721
0.3433468682
0.3449221537
0.3485557307
0.3377907929
0.3408958478
0.3303528694
0.3558029249
0.3760506555
0.3619706028
0.3025897611
0.3143388138
0.3179812339
0.3395587059
0.340395569
0.3127702511
0.2984260891
0.3007894378
0.314071125
0.3201671511
0.3333921923
0.3144271552
0.3253483411
0.3389496316
0.3577095078
0.3334215701
0.3338420241
0.3299711493
0.3228149175
0.3168924138
0.3527753982
0.3490551915
0.3453846396
0.3096730376
0.3258149025
0.3538763114
0.3528051554
0.3430668219
0.3474861262
0.3441155554
0.3533488361
0.3542633251
0.3549607794
0.3413852117
0.312500175
0.3482159957
0.3619463787
0.3211195349
0.3223614033
0.3089965562
0.3221502595
0.2951825451
0.2792473782
0.2662072228
0.2878803835
0.2664458656
0.2933565887
0.3279515146
0.3416984457
0.3381706927
0.3354089961
0.3102922757
0.3142089103
0.3114146124
0.2756090383
0.2681127233
0.2860815218
0.3290270417
0.336208476
0.3401051098
0.321851882
0.2839827238
0.2957752537
0.3310771941
0.3237556896
0.3084013705
0.3333879947
0.3394053614
0.3228564814
0.3325667294
0.3235836386
0.309968227
0.2791040558
0.2742908969
0.280042825
0.2804848502
0.2807258099
0.2864417909
0.2796129361
0.2628582239
0.2925561905
0.3351375838
0.332229294
0.3300658416
0.3248090853
0.3143018237
0.2917438754
0.3073497784
0.3322984018
0.3486871612
0.3274643876
0.3138355609
0.3031260144
0.2957589533
0.287312159
0.2892446922
0.2929340085
0.3175279862
0.3178838244
0.3026649794
0.2930104196
0.3155266347
0.3184353956
0.3186525646
0.3206238074
0.3523505082
0.363859274
0.3384680157
0.3186138487
0.3003831675
0.315155625
0.3166065707
0.3118262622
0.2935863828
0.3277166515
0.3420878356
0.308390734
0.2956173959
0.2732728679
0.2723678242
0.2825661313
0.2874926836
0.3227563265
0.3368330968
0.3287922894
0.3176970754
0.3170494463
0.3152239387
0.302716541
0.2828323413
0.2973962502
0.2899990268
0.2880781127
0.3115340563
0.2973057208
0.3019516396
0.3187858527
0.3047497568
0.2998283523
0.3074666484
0.3249539208
0.3032599139
0.3269671945
0.3431611961
0.3126332991
0.2941962464
0.2841869005
0.2972806508
0.3176681434
0.3212916829
0.3167743836
0.3246223262
0.331954306
0.3207788631
0.3436002439
0.3434003246
0.3216650496
0.3455443777
0.3283561581
0.3343635185
0.3336785794
0.3331152422
0.3363333057
0.3507925894
0.3653899308
0.3554558486
0.3561200555
0.3433360855
0.3089129803
0.3041198549
0.3089308573
0.321592534
0.3220815872
0.3451626058
0.3120958127
0.3390341446
0.3341595933
0.3069237667
0.3198564661
0.3262926613
0.308090858
0.3083455903
0.3164253838
0.3302735157
0.3287394685
0.3307871763
0.3102694138
0.3314034673
0.3182839764
0.3219331194
0.3209099595
0.3254509804
0.3449196617
0.3373222155
0.3281493091
0.3285729246
0.3362774829
0.3218706224
0.3063043737
0.2952911881
0.3062362159
0.3236519995
0.3267373744
0.3370857836
0.3350249695
0.3286304733
0.3114631238
0.3303880755
0.3348956929
0.3141412141
0.3138370965
0.3000527259
0.3170759068
0.3136709477
0.3137046177
0.2996443197
0.2942435767
0.3101984241
0.332375295
0.3452529505
0.3297789398
0.2888580991
0.2894418009
0.3079783928
0.3439687828
0.3358762639
0.3203919995
0.318501157
0.3109956875
0.3103825237
0.310517287
0.3066987051
0.3082139493
0.3120355624
0.3205125199
0.3254540883
0.3402589061
0.3534552794
0.3248496456
0.2940475692
0.3234302941
0.3162086393
0.3193166727
0.3286101748
0.3436184503
0.3230699942
0.3100668489
0.3069505899
0.306438556
0.3117857793
0.3219856381
0.3337828723
0.3101763489
0.3370904789
0.3750497462
0.400777532
0.3454831831
0.3396736857
0.3451991801
0.3773465396
0.3382037952
0.3028116473
0.3085694201
0.3126294653
0.3152321699
0.349980287
0.3537130032
0.3732055626
0.3423244546
0.3471248867
0.3436775776
0.3317922004
0.3513764702
0.3429889925
0.3314394216
0.3289929915
0.3272796739
0.3250831645
0.3374596467
0.3052761599
0.2903928873
0.2948892171
0.3002841853
0.2893840486
0.2949969043
0.3050588599
0.3046031863
0.3220103515
0.329042522
0.3344517301
0.319383828
0.3478919676
0.3595203997
0.3482203752
0.3537500615
0.3446891928
0.3453463078
0.3709773546
0.3404124543
0.3466696494
0.3400140287
0.3443653373
0.3468137131
0.3520612206
0.3344176973
0.3420767743
0.3525088962
0.3595199572
0.3566317296
0.3587670407
0.3452221944
0.3281652342
0.3378508814
0.3440214884
0.3275538505
0.3281088801
0.3192675094
0.3048675775
0.3187824514
0.3175697229
0.3402825025
0.3497310231
0.317036109
0.302944794
0.3043210574
0.3324504555
0.3607307309
0.361668589
0.3598173205
0.3401708598
0.341355207
0.3394071379
0.3149883462
0.2988954659
0.3446875635
0.344198909
0.3279013366
0.2928143825
0.2958697351
0.3211213863
0.3208896789
0.3164608548
0.313074546
0.3175999281
0.3027134332
0.2909705703
0.2760750343
0.2726829798
0.2998563569
0.3182831691
0.3234050168
0.3249040057
0.362105725
0.3463188118
0.3362300654
0.312798178
0.3170823979
0.3185113049
0.3259063982
0.2944728852
0.2670809446
0.287085184
0.326001339
0.3163156345
0.3168087056
0.2979274476
0.3182299464
0.2955838217
0.300389281
0.2824429188
0.3017877005
0.3135868887
0.302749277
0.325151547
0.3583818791
0.3452489053
0.3025733876
0.3149096803
0.2951345787
0.2942982642
0.3253672376
0.3096789858
0.28573694
0.2666582094
0.2935798893
0.3171148061
0.3080181064
0.3042602565
0.328094964
0.3160478074
0.3239474359
0.3255068001
0.3321014101
0.3518406248
0.3066137018
0.3027039157
0.3142052889
0.3037670097
0.3017792157
0.3108835145
0.2823294725
0.2816632969
0.32390813
0.3243849078
0.3059818653
0.3139468398
0.3146133555
0.3056635315
0.3323382178
0.3373481632
0.3323900652
0.3212914243
0.3302477507
0.3299736306
0.3274629244
0.3242998405
0.2974147069
0.28933799
0.313886793
0.3293874913
0.3425350014
0.3281305111
0.3252228303
0.303904988
0.3090828422
0.3197137401
0.3081142921
0.3186624367
0.3027471038
0.308099373
0.2944337072
0.3191513256
0.3084827083
0.3349320767
0.2956182072
0.2994025285
0.3075199119
0.282611437
0.2690833387
0.2962807281
0.3018409817
0.3133606646
0.3322184636
0.3253953245
0.333594311
0.3167477816
0.3158697366
0.3056016256
0.321302601
0.3076505941
0.3099359689
0.3049819168
0.2943096488
0.2990374739
0.3206246682
0.2897468893
0.291067913
0.3188794923
0.3424618958
0.3332684548
0.3293345441
0.3280954048
0.3122893346
0.3127351868
0.3137804854
0.3261187518
0.3193763315
0.3216960841
0.3033862292
0.3047366469
0.3068281813
0.3035741008
0.2965526776
0.3187522225
0.3229937422
0.3559675027
0.3782250279
0.3926901609
0.3627930656
0.3678135156
0.3511667618
0.3722929173
0.3495204167
0.3263415796
0.3359074578
0.3229549552
0.3378503229
0.3296235346
0.301993093
0.2849737851
0.2796636743
0.2861880771
0.2999207586
0.3157930099
0.3244386787
0.3444864278
0.3241618912
0.3212143764
0.3348353521
0.3236812361
0.3419584934
0.337882071
0.3257282903
0.3214203727
0.2965169578
0.3091633279
0.3204122799
0.3158400185
0.3007247101
0.32165022
0.3556413077
0.3412445844
0.3256160097
0.3338702674
0.2986049407
0.3213830521
0.3306284077
0.3099521494
0.3199378079
0.3273229141
0.3291281632
0.3603992735
0.3718839137
0.3363006778
0.3041291663
0.3189150983
0.3194677465
0.3023118833
0.313782735
0.3303657027
0.3313702851
0.3280196235
0.3319264342
0.3129916402
0.3464333542
0.3263643001
0.3118962236
0.3317158119
0.3296113237
0.3278079107
0.316628385
0.3422866045
0.336761775
0.3406042473
0.3021136691
0.291661514
0.2931071064
0.3114314747
0.3104813956
0.3281660874
0.3493646077
0.3573671339
0.3394360752
0.3332917146
0.3605803897
0.3441402765
0.3081984806
0.3067554206
0.3025402125
0.3045161405
0.3009547972
0.3126672307
0.3237296481
0.3430404115
0.3480919402
0.3387152537
0.3548135306
0.3431956596
0.3373974758
0.3379386512
0.3062478877
0.3381759169
0.3315089999
0.3539448143
0.3180426058
0.3506851518
0.3824857385
0.3713453156
0.3521507432
0.331271472
0.3312548311
0.3108360801
0.3079207991
0.2915607612
0.3067696793
0.3227652557
0.3347578872
0.3145240622
0.3139748739
0.2970099933
0.298116468
0.2869502769
0.3224484842
0.3126977188
0.3561897822
0.3154590147
0.3088670247
0.2924703792
0.3318186418
0.3238171977
0.3304742764
0.3597300266
0.3400740849
0.3265302659
0.3173664587
0.3307116648
0.3037995378
0.3232532565
0.3277548162
0.3352016822
0.343771181
0.3683536466
0.3565013971
0.3588536405
0.3369298217
0.3135797287
0.3356803909
0.3341313387
0.3374546058
0.3541487509
0.3536355157
0.3356262215
0.3346678966
0.3431722354
0.3342524477
0.334557948
0.3506078874
0.3561443411
0.343594723
0.3227702652
0.3567669107
0.3268405022
0.3264719214
0.3358669619