/*--------------------------------*- C++ -*----------------------------------*\
| =========                 |                                                 |
| \\      /  F ield         | OpenFOAM: The Open Source CFD Toolbox           |
|  \\    /   O peration     | Version:  2.4.0-MNF                             |
|   \\  /    A nd           | Web:      www.OpenFOAM.org                      |
|    \\/     M anipulation  |                                                 |
\*---------------------------------------------------------------------------*/
FoamFile
{
    version     2.0;
    format      ascii;
    class       volScalarField;
    location    "0.001";
    object      p_O2;
}
// * * * * * * * * * * * * * * * * * * * * * * * * * * * * * * * * * * * * * //

dimensions      [1 -1 -2 0 0 0 0];

internalField   nonuniform List<scalar> 
5120
(
0.07646642625
0.08929151595
0.1185900219
0.1144832796
0.1043669856
0.08726258821
0.08500918807
0.09701491099
0.08348517912
0.08560750161
0.09617709423
0.09470049106
0.09538989485
0.1169263106
0.1234822949
0.1065933268
0.1047002142
0.0991232031
0.08685992008
0.08813363524
0.1013167383
0.09513369313
0.09404062106
0.08572863392
0.08409635475
0.09319482593
0.08447608351
0.08144378255
0.0646959814
0.08564959692
0.09330025836
0.09436814474
0.09682624051
0.0875341731
0.09197063719
0.1111378775
0.1051384868
0.1063497615
0.121921134
0.09725823241
0.1013169127
0.1088742306
0.09457435618
0.09922302592
0.09978353037
0.08455294343
0.1013019008
0.1092414721
0.1049327072
0.09858922908
0.1050531421
0.1049703965
0.09810915204
0.09822134801
0.1077909793
0.1127261591
0.1180390931
0.1024871511
0.09921266039
0.1085828728
0.1022720773
0.1277249302
0.1263451828
0.1274064321
0.1147216372
0.1128260189
0.1019370863
0.1105428346
0.1120525357
0.1028037274
0.1107523512
0.09785000867
0.1029468409
0.08752156553
0.09135892007
0.0769966385
0.07577507445
0.07758785374
0.08620109534
0.09073165183
0.0933683365
0.08438641302
0.08262677928
0.0744409061
0.07656470543
0.09198270025
0.1096412769
0.1099386075
0.09557399122
0.07891954638
0.07600964706
0.07819267195
0.07656495205
0.08834939394
0.0936005565
0.09409180193
0.07744038523
0.0778997968
0.0975493234
0.1026028491
0.09657140708
0.09312944602
0.08718779952
0.08143102524
0.0897669575
0.08413948886
0.08086772202
0.08328751043
0.09151558433
0.1013714064
0.09186301648
0.09192732951
0.08064004041
0.08490817676
0.09614263197
0.09671724257
0.08514164634
0.08822591054
0.09306373301
0.09883359852
0.08822813423
0.08730078576
0.09059303925
0.1004247989
0.0931822161
0.0752436726
0.08871444585
0.07642595108
0.08203476046
0.08557945584
0.09297201498
0.09959228586
0.09264069809
0.08119458711
0.07478765767
0.08180628585
0.08648301693
0.08825863174
0.08429364207
0.08229399556
0.09100325275
0.08821169028
0.09887907332
0.0908590628
0.09418605529
0.09124022235
0.09245585563
0.08329651303
0.08093241723
0.07824364186
0.0880939552
0.0875900188
0.09203644941
0.08621352005
0.08438127865
0.08939922509
0.08784359246
0.08067362705
0.08202055372
0.09209144386
0.08568884235
0.09611589063
0.08054833826
0.08243969621
0.08252552522
0.07676880008
0.09094618044
0.1039439427
0.1120733922
0.1014684451
0.09804538266
0.09840584249
0.09485244271
0.09754606945
0.09383766828
0.1021559124
0.09752860307
0.09293960778
0.0883464484
0.08341023876
0.08551496963
0.0760058375
0.08487386861
0.0994071702
0.09980199178
0.09009228383
0.08712142114
0.09149015252
0.09172295187
0.0990536829
0.09435774207
0.08822645087
0.0835057706
0.09449783096
0.08250145074
0.08110149484
0.07341694523
0.08065754756
0.07843554205
0.08990714636
0.08934533395
0.09363409632
0.09815190885
0.0750921282
0.07629913551
0.09410009615
0.09102574641
0.0892834931
0.1004609687
0.1003128388
0.1016106857
0.09350969745
0.08711458371
0.09565431083
0.1006088284
0.09430230822
0.0834228953
0.06985615467
0.07588660088
0.08616996468
0.09249795755
0.09274251138
0.09578517162
0.09723732135
0.08819916736
0.08508154238
0.09413729565
0.0977266033
0.09380031176
0.09173152503
0.08594591142
0.08588795913
0.08346633499
0.08792809121
0.07866203911
0.09114508444
0.1023834398
0.09533268532
0.09125497699
0.0926518403
0.06797610537
0.08920686305
0.1043966663
0.100031766
0.08836268502
0.09030708629
0.09627371201
0.1001237667
0.104663402
0.1018231735
0.09765768202
0.08912075046
0.08212188995
0.09237733703
0.09981828006
0.09170439533
0.09814692332
0.09622552282
0.08824373453
0.07794654035
0.09869808909
0.1013086826
0.08913580379
0.08093505539
0.07729497336
0.08361850765
0.1005535285
0.09800334127
0.08664525063
0.07796886442
0.09374875335
0.08840680622
0.0937039238
0.0897616535
0.08493721719
0.09011094696
0.1020967206
0.09618727137
0.09824698388
0.09567718447
0.1178993327
0.09448052866
0.08279101786
0.08273126557
0.07823803567
0.07555837381
0.08999660001
0.1037347327
0.1134515439
0.09591685026
0.08550568362
0.08348242234
0.09281446001
0.1099491802
0.1131458694
0.1027143691
0.1009331689
0.08362404295
0.09187432788
0.1026307833
0.1040530018
0.1170302469
0.1216071841
0.1197151395
0.1117835113
0.1011894706
0.09030891906
0.08584747271
0.08959880739
0.1089510334
0.1055968752
0.08475520062
0.09378651881
0.09568504343
0.07828977581
0.09577739696
0.1063943244
0.1145350586
0.1129709416
0.1014538822
0.08947158171
0.09452885898
0.09476763642
0.09964230323
0.1021521596
0.107606198
0.09517282652
0.08901657438
0.08022788247
0.08245914579
0.08057731035
0.09225777478
0.09727154292
0.08909482804
0.08213557914
0.08689814296
0.1119593655
0.09872251318
0.09288036169
0.08730957599
0.08670139048
0.08824129135
0.08798689374
0.09543688078
0.09589164724
0.09427401372
0.09234805884
0.09809672011
0.1033053028
0.103134726
0.09656062068
0.09778104116
0.09841364097
0.1001876851
0.09577145496
0.1004692643
0.09351483431
0.1023178248
0.09970603544
0.1048722209
0.09100549908
0.08395055379
0.09651956983
0.08727891101
0.0780646347
0.09263326505
0.09653477746
0.09840770175
0.1056211146
0.09881177046
0.1002464042
0.0987463979
0.09869225215
0.1042199333
0.1097359019
0.1003298151
0.1002413175
0.09407123234
0.08867998776
0.09521745772
0.09699295665
0.1045733907
0.08985938861
0.07353779173
0.08504781928
0.08057149934
0.07540244
0.07801905235
0.08002265562
0.08292919242
0.0766052161
0.08068840826
0.08822006609
0.09956492215
0.08916882817
0.07559659294
0.06878739335
0.07691532291
0.08359960852
0.0852963325
0.0905872093
0.100825627
0.1082226303
0.1049781983
0.09870665979
0.09560716127
0.07976583693
0.07840788858
0.07326285118
0.07698537582
0.07629795777
0.06469687159
0.08248699672
0.08722014681
0.08393539614
0.08310505418
0.09663447855
0.0984907035
0.09035809956
0.08578390138
0.09220175341
0.08940824825
0.08496157338
0.08800645394
0.09146087696
0.08292571577
0.0924099577
0.08429209912
0.09307952702
0.1012762488
0.1000054345
0.09341913967
0.09244677737
0.08947919943
0.08919740963
0.1081225543
0.1038798999
0.0912415736
0.08122143987
0.08462339537
0.09452945681
0.1006073957
0.09313639638
0.0807955143
0.07899016354
0.09446462478
0.09302064235
0.08682065169
0.09248385696
0.1000882799
0.1051032822
0.1149927606
0.1248208228
0.1143963599
0.1078916201
0.09218749155
0.08889827542
0.09598310015
0.1027426566
0.0942846471
0.08787551618
0.09151770817
0.08712044878
0.098932631
0.1073639653
0.1057008743
0.09296536193
0.0956694095
0.09447825184
0.08785003109
0.09630989045
0.09005940146
0.08588618846
0.1039502859
0.09582501927
0.08897581697
0.09211440637
0.08622524833
0.07583825794
0.08021395197
0.09842040667
0.09214517502
0.09582028376
0.0916648314
0.08456057082
0.07364649143
0.07329903233
0.07849343989
0.08752636706
0.0908423805
0.08748240237
0.1014759636
0.0995011491
0.09225686975
0.08898261932
0.08758024109
0.08627046163
0.09171656924
0.09719035573
0.0924116374
0.1077557091
0.1023998683
0.1010566414
0.09323482779
0.08630448201
0.08600906383
0.07706955441
0.07284273251
0.08256218047
0.0744792322
0.09849872522
0.08949658018
0.08215775684
0.09856227469
0.1007576601
0.09538498574
0.1014764433
0.1012730132
0.1036257781
0.1072980774
0.09839555667
0.09311255254
0.08240056346
0.1012606902
0.09824017765
0.09971275117
0.09653541943
0.09474424614
0.0938808002
0.09013616803
0.08717570598
0.09309550974
0.107067691
0.1000888085
0.0922077577
0.09956895869
0.0990224755
0.0910383187
0.09205826937
0.08972528893
0.0959702492
0.09024684367
0.0922982629
0.07864073868
0.1023370878
0.09342396819
0.09530701303
0.09459966562
0.08826362301
0.08330302849
0.07895022774
0.09613315298
0.09182464027
0.08679723259
0.08910015431
0.08887602431
0.1068056041
0.1205762091
0.09767562413
0.09154414476
0.08503217569
0.08726782678
0.09227629658
0.09749878942
0.0945676511
0.08980804485
0.07653815336
0.07930034633
0.08688189457
0.09344004537
0.07903793898
0.07753503053
0.09056728102
0.09249927742
0.08149592926
0.07214726032
0.08624962881
0.08330421232
0.08120676352
0.0760688169
0.05735585706
0.05525298416
0.05650035584
0.07295676577
0.08867869675
0.104486531
0.1022229776
0.1055376061
0.09827032835
0.08884619051
0.09231691729
0.0885317977
0.06971689995
0.07319952836
0.08412741881
0.08269368614
0.0911902429
0.1067501075
0.08889418312
0.06402285621
0.1019151137
0.1013716767
0.09763132727
0.08540419149
0.09471594598
0.08997119464
0.1043146985
0.101208304
0.09995321505
0.1082770037
0.1104280835
0.1097524146
0.1161920859
0.09707614355
0.07205601541
0.07804656006
0.06801603043
0.08517548562
0.09188697405
0.08862905613
0.1072886003
0.1089142046
0.1158859841
0.1045434505
0.1052459907
0.1000947395
0.08338755081
0.08238910047
0.08794362997
0.1049173974
0.1032129109
0.1033862723
0.107413561
0.1007514561
0.1164416342
0.1082577682
0.1017884959
0.10053112
0.1144580229
0.1149955205
0.09200565436
0.0969979377
0.1086767396
0.1062522236
0.1023063982
0.1090623075
0.1122104756
0.1046279628
0.09673920772
0.07735816126
0.07693929105
0.08472730409
0.09477643324
0.1055015425
0.1095847401
0.1010961706
0.08531400287
0.1128558872
0.1039911377
0.1063231925
0.09079160165
0.09233391717
0.09776701731
0.08249098656
0.08886957788
0.08770082623
0.09910301726
0.09340122461
0.08902096843
0.09585255744
0.0977529521
0.1059480072
0.09975814147
0.09445249957
0.09567029682
0.1002692574
0.09813622786
0.07944038566
0.07716220749
0.08479330721
0.09965207801
0.09673132322
0.08703161663
0.0816626159
0.08327765353
0.08239363076
0.08160031199
0.0947932025
0.09033810486
0.09535302407
0.1124228606
0.09347899627
0.09077852855
0.1015541012
0.1013507111
0.09048266251
0.09576248734
0.09438124779
0.1079908158
0.09630685762
0.08555492856
0.08309568712
0.07715002079
0.08378059512
0.08654734959
0.09728200517
0.08246818632
0.07681100326
0.08193052732
0.08647873591
0.08864954258
0.1023728609
0.1059583699
0.08892405879
0.09192964742
0.1035653753
0.1117242146
0.1135409839
0.1002824175
0.1084415301
0.09058873086
0.0935010605
0.09188984376
0.09632081001
0.1018768593
0.08273846694
0.08824137944
0.08729781371
0.092347316
0.08971374516
0.09786172278
0.0867529173
0.08449287173
0.09175563987
0.1013358346
0.1066078722
0.09148876553
0.08298825191
0.08379425298
0.08757592999
0.08501804871
0.08076817153
0.09084797108
0.08690704132
0.08651420182
0.09269770451
0.09104990314
0.08794926339
0.08836967904
0.08105746948
0.08637695457
0.09702454628
0.1001036216
0.1085634347
0.1097597033
0.1097927906
0.09640075246
0.08403120638
0.07978645261
0.08360959977
0.07277990234
0.06742947717
0.06455040478
0.06988445004
0.07030498857
0.07683187561
0.08482645207
0.1021603258
0.08811378204
0.082296291
0.09291705998
0.1087253509
0.1082954778
0.09844949242
0.1035863364
0.1041193679
0.09623290977
0.08921061358
0.09259929665
0.08065330936
0.08429006342
0.08731593004
0.08735636206
0.0978371318
0.0809085953
0.07821769159
0.08878697275
0.09213554728
0.1003978771
0.09242174839
0.09553753826
0.09202004415
0.07377777512
0.07236895602
0.08149734456
0.0863843816
0.08278461202
0.09166806602
0.08364313827
0.09224201119
0.1028661744
0.09372950795
0.09310986071
0.09316980182
0.09774199761
0.1007075689
0.0944983157
0.09574099791
0.08375897918
0.08404923362
0.07837761482
0.09205447605
0.1015908261
0.1121260141
0.1097025174
0.0941693313
0.09400606723
0.09698086937
0.1017940896
0.09945873422
0.07850863835
0.08426448511
0.08873761346
0.08538406824
0.09012678563
0.09524241539
0.09406544089
0.08305393511
0.1003949872
0.0922872479
0.08376722346
0.08523619343
0.07558590239
0.07698264251
0.08137493765
0.08183828582
0.07738607633
0.07626587858
0.08962733763
0.08654698192
0.08743592755
0.08563903839
0.0743195365
0.07565889772
0.08363626171
0.083830514
0.09680524444
0.08560150826
0.08613745699
0.09772873879
0.09824453681
0.1047940696
0.100202962
0.09026626316
0.0960402754
0.1031671516
0.09099369996
0.0977686535
0.08854885687
0.09408341581
0.08404083027
0.07777767516
0.08754174624
0.08765996593
0.08752535521
0.08328169929
0.0756332377
0.06928042911
0.07406833188
0.08629128587
0.0876315294
0.08052457677
0.09626533704
0.1113068768
0.1077859981
0.0989489398
0.07745626586
0.08371395627
0.08632531325
0.1027201078
0.09332490316
0.09946085266
0.09833510103
0.09589060271
0.1038521601
0.09423592773
0.09704394664
0.09309542675
0.0823242194
0.08143549073
0.07573342276
0.07790308805
0.08250753495
0.09374287858
0.07787811868
0.08122230666
0.08503418299
0.08514990902
0.08100422329
0.08778564815
0.08739488966
0.08609856846
0.08264727078
0.1007470922
0.09240786112
0.08818981211
0.09312062461
0.0942806122
0.1047709152
0.101409851
0.1053249362
0.08821675855
0.07871704629
0.07013861176
0.07460418602
0.07415256299
0.07018400883
0.07352546204
0.07117635402
0.09141233707
0.09732764145
0.09219192
0.1008365654
0.1036226171
0.1001698354
0.105588985
0.09940918036
0.08550144839
0.08841309632
0.07321470088
0.08261967742
0.08382546292
0.09638479576
0.1082839981
0.1022558439
0.08917648286
0.09349337187
0.08661781589
0.08406130972
0.09344404622
0.1060232078
0.1117257378
0.09209271897
0.0949532755
0.09926670417
0.1014748562
0.1072824157
0.1182742818
0.1049038634
0.09254270303
0.08130417615
0.07276170084
0.06943016808
0.08014950646
0.09625244392
0.09546651307
0.09479601074
0.1049638559
0.1038590489
0.09648954822
0.08548929189
0.0887623219
0.09501657118
0.09008180063
0.08464409299
0.09422163382
0.08607439321
0.09022690103
0.0882192527
0.08616138225
0.1014855775
0.1050438897
0.1073312321
0.1100704333
0.1048645794
0.1069751926
0.114405776
0.09904329744
0.09028774134
0.08920037229
0.09692583848
0.0850337744
0.07768266888
0.08781289341
0.09199291168
0.09689842574
0.09327751142
0.1082816744
0.1121546023
0.1251680979
0.1202836656
0.1042916721
0.1094169752
0.09815260936
0.08473359049
0.07789394399
0.06622037026
0.0765299728
0.08223779195
0.08147899593
0.07878705446
0.0840337981
0.08103548685
0.08699836078
0.09622080108
0.09559746038
0.08397367244
0.08024421309
0.09535275317
0.09580109872
0.1069488886
0.1075000052
0.09716684862
0.07878866448
0.09314563272
0.09201003441
0.09551812743
0.09010657851
0.0861872377
0.08957110613
0.09247536744
0.1037722042
0.1113146711
0.1092339472
0.09827041363
0.1041188736
0.1041197347
0.1025623507
0.09241197327
0.09294201587
0.0979036962
0.1048041727
0.1036266735
0.1160735399
0.09942083947
0.08839336013
0.09395539609
0.08237937284
0.08233526303
0.08198729312
0.08998515461
0.09451609206
0.09562594393
0.1062623752
0.1055919092
0.1054317444
0.1057075632
0.1031960736
0.08891383232
0.08485672001
0.07175733249
0.08329656715
0.09825110381
0.08137345594
0.08464157164
0.07422876248
0.07908242829
0.08665696127
0.09725731849
0.09732280029
0.08180065702
0.0891110289
0.09598412164
0.09672746361
0.09987784657
0.09292138802
0.08655199078
0.08679501504
0.09111199344
0.08978736
0.08830330162
0.0946960899
0.1046442043
0.09431468959
0.08100431361
0.08254353856
0.08353255751
0.08171386655
0.08767382879
0.08360835909
0.1057618142
0.1056165306
0.08383988137
0.07571634737
0.08031152643
0.09583577346
0.09088574972
0.08159769221
0.09123244713
0.09354126169
0.1044557001
0.1017355314
0.09055866248
0.1026616531
0.09740568067
0.09489568984
0.08913849266
0.08821474618
0.07626727297
0.0923856702
0.08261531674
0.08345927953
0.08826172344
0.09838412257
0.09863257788
0.08784458293
0.07889096462
0.08061581597
0.0845978058
0.09244605465
0.1057831666
0.09596321967
0.1006266016
0.09580224313
0.09412091305
0.09413579096
0.09449010564
0.08865042731
0.08983424084
0.08911942141
0.09669276835
0.09803277655
0.1020901497
0.09078633601
0.08088660152
0.09045987861
0.09467559541
0.08879032733
0.09080130155
0.09138852973
0.09946638524
0.09312560492
0.1016912057
0.1061652096
0.1014771995
0.1080964976
0.1041823532
0.1111944339
0.09248946481
0.09362290005
0.08103962893
0.06671851667
0.06323889676
0.07508249629
0.06837125237
0.07516153103
0.09158901657
0.1047760316
0.0912363469
0.08690608059
0.08163669821
0.08963274951
0.1118523064
0.1014020702
0.1052263811
0.1046470183
0.08734274302
0.09272045204
0.09343408044
0.08563381975
0.1068905615
0.100334481
0.09630013461
0.09224369621
0.08328716299
0.08769005374
0.0774406579
0.07958621327
0.09211039878
0.09256618114
0.09195777701
0.100697989
0.09196834321
0.08781706942
0.09012744448
0.0722405619
0.0727532775
0.06606417906
0.08732864661
0.09548289784
0.07623196542
0.08812817745
0.09986523818
0.0952005349
0.0847679599
0.08921882746
0.09010335702
0.1035313578
0.09965604176
0.09302389126
0.0994718012
0.08616231232
0.07497527949
0.07775505078
0.08838592216
0.08943798877
0.08079673356
0.07409129711
0.05930968724
0.06198969877
0.07820287753
0.07525661689
0.08027871134
0.08705053223
0.09099905092
0.0935978276
0.09325674599
0.08346994823
0.09138128323
0.07848299569
0.09583414211
0.09282141268
0.08293725019
0.0770259974
0.09327470126
0.1026359449
0.1102288868
0.1076573351
0.1034304015
0.1010628868
0.09986298608
0.09305763834
0.09713554536
0.08305363502
0.07845537314
0.1000784363
0.09801946129
0.08808955732
0.08042767328
0.08990461418
0.08979989443
0.1025361128
0.1036862653
0.1043535564
0.09256458098
0.08127369777
0.09327616013
0.08846084477
0.1053681373
0.09892476947
0.08296770598
0.08919345102
0.08794446529
0.09781833714
0.09912508295
0.08585280446
0.1000754704
0.0928794672
0.08188624713
0.09585388265
0.08781708108
0.08604038324
0.07080802502
0.07172210778
0.08591047757
0.09052510686
0.08607484488
0.07853874105
0.08389681089
0.08395156262
0.08150405236
0.07759570076
0.07648197697
0.08296523628
0.07628205095
0.08752168441
0.08631270359
0.09033837929
0.09351907592
0.08528865409
0.08714916001
0.08026818548
0.07606572401
0.08104611228
0.09178571469
0.08688791988
0.09143239244
0.09304050022
0.0980614425
0.08101653235
0.09067250975
0.08531887695
0.07317530545
0.08334445536
0.08465470952
0.08397279386
0.08769519911
0.09291269081
0.1027561638
0.1054839939
0.1080320152
0.1011011256
0.1142286135
0.1077927314
0.1150671709
0.1013164022
0.09430831214
0.07848204228
0.08500416907
0.09079762462
0.09969113659
0.1040941886
0.1024724653
0.08760799546
0.09759940052
0.09103891827
0.1019125099
0.107907586
0.1097593203
0.09412963761
0.105049281
0.1063350108
0.1047999884
0.1091611685
0.1072033479
0.1013209653
0.09614469121
0.08845848305
0.08813982743
0.1112589478
0.0887647235
0.08538194386
0.09299735953
0.09405981409
0.1039996949
0.1043148672
0.0959032335
0.1031760472
0.09632624047
0.1264429137
0.1145383717
0.103964864
0.09652300241
0.1014725459
0.09633501407
0.09489052219
0.09733109988
0.1033690423
0.09613106956
0.08998737282
0.1058854871
0.09246999976
0.08662281756
0.07031456058
0.07928387624
0.08484569827
0.08475718371
0.08467742112
0.09557924169
0.09951637776
0.09309878867
0.09636160861
0.09488917803
0.09840730175
0.0951793184
0.1026010113
0.09499847958
0.0980956946
0.1052878407
0.09884162109
0.08674800946
0.08961356646
0.09895807649
0.09669417641
0.07677208598
0.07838705749
0.08153656134
0.07807493853
0.08885447948
0.09241131773
0.08014732939
0.07955100364
0.0749811816
0.07921213753
0.08730040581
0.08988997127
0.09093051591
0.100443502
0.09526407043
0.09043156497
0.08675742897
0.08134049501
0.09196092247
0.09667255869
0.106392942
0.1037774255
0.0944796938
0.08912310374
0.07844042522
0.08461942555
0.08260690962
0.07924991421
0.07482257099
0.1004193475
0.0862909463
0.07471461284
0.07752474509
0.08167155763
0.08509837446
0.08321858185
0.08468451027
0.09885076502
0.1107922177
0.1023449231
0.09690113586
0.1041225338
0.1095539242
0.1085918224
0.09817260594
0.09060566193
0.08716758199
0.08733744698
0.08429750224
0.07567077614
0.08102852936
0.08406697633
0.1054730448
0.1051237143
0.1045577628
0.09058035941
0.09087032488
0.09105362866
0.08529979891
0.09079263265
0.08944779158
0.0880834294
0.09094107473
0.09201548957
0.08279845171
0.08385220242
0.08741895221
0.09113068443
0.1006109036
0.1113444291
0.09642316088
0.08008786818
0.0852374591
0.09762824621
0.103742512
0.09015874819
0.1033194879
0.08894236608
0.09236223906
0.08424591335
0.09316405804
0.08580446835
0.08871252585
0.09181924926
0.1022679192
0.09253298848
0.08758416148
0.08154915988
0.08210698177
0.09517233359
0.1272725775
0.1227106819
0.1257168215
0.110172724
0.1079704207
0.1118826619
0.08084095197
0.07399405976
0.06559013559
0.07921347014
0.09196455381
0.09958447375
0.09126710161
0.08200602982
0.08699409746
0.0797286477
0.08152432039
0.08493611973
0.09013189059
0.09710476017
0.08404150908
0.09809071816
0.1084469767
0.09428633354
0.09257331802
0.08930580382
0.08000665061
0.1048674417
0.09571571856
0.09098565662
0.1047103838
0.09910810102
0.1004222513
0.09189887557
0.09598624935
0.09658077208
0.09351216121
0.08906807346
0.0870289469
0.08095503655
0.0827366985
0.08745607456
0.09447724598
0.1031410145
0.1003034657
0.08788219687
0.09294095842
0.08183518505
0.07024911873
0.07638066045
0.08271652574
0.09038626556
0.08994530991
0.1083176678
0.09644664364
0.08914078439
0.08494715835
0.07260200567
0.08472600901
0.0882516742
0.08720183423
0.08226069174
0.08479496532
0.09389066451
0.09639900247
0.1001055485
0.09272438715
0.09702491205
0.1059990832
0.1069836731
0.09857387432
0.09090779446
0.08330943555
0.07619853457
0.08358599644
0.08774471139
0.08253415446
0.08603744586
0.08230959893
0.09990550721
0.09884533175
0.102346824
0.09829071367
0.1046205401
0.1011568026
0.09073573179
0.1022185857
0.09871590912
0.1047879077
0.09743324539
0.107735794
0.09766976219
0.1007139164
0.1041480811
0.1029069482
0.0919220058
0.07692828226
0.08560371175
0.07959006342
0.07776129125
0.08709866268
0.08572369284
0.08328577236
0.08550046518
0.09221576144
0.09859835756
0.08403083616
0.07991979996
0.07987499045
0.0899014752
0.09217708891
0.07793443769
0.07204627455
0.0699345054
0.08769022198
0.07617317889
0.0779409557
0.07634761355
0.07420188146
0.08075372211
0.06255712684
0.07611508979
0.08431866736
0.08818323131
0.08575705269
0.0823581715
0.08421797397
0.08329566677
0.09201782545
0.0899284843
0.08479697338
0.09012102979
0.08326605641
0.07959815884
0.07249989799
0.07862583907
0.09957851023
0.09903329281
0.09823703192
0.08833877892
0.09264154487
0.1014233711
0.106397575
0.1047176992
0.09260439834
0.1004304856
0.07434562574
0.09308797521
0.09338472088
0.08868699127
0.08849606908
0.09706306574
0.09620425098
0.09496562951
0.09380479942
0.09997497205
0.09513804373
0.09029998205
0.08860340033
0.08257043379
0.0766448989
0.08689860151
0.08526905891
0.09622508296
0.07961496983
0.07297807639
0.09205720119
0.09002794153
0.08863541465
0.09495565516
0.09533244763
0.1019080843
0.09517782209
0.096469156
0.09457448
0.11519874
0.1070915188
0.09509239435
0.09078703066
0.09209395199
0.1005764779
0.09877173617
0.08935012038
0.08581943499
0.08645691338
0.08906187141
0.08086692388
0.071568116
0.08071245527
0.07951565074
0.09177428618
0.1027909744
0.1059503731
0.1161232938
0.1225584562
0.09843447033
0.09631546002
0.0965608584
0.09867291488
0.1009298657
0.08835327899
0.08481758918
0.09094038518
0.08367701591
0.09268497015
0.09606725064
0.100025079
0.09983918998
0.09888564487
0.08890648601
0.08976934248
0.08461085651
0.07595504215
0.07954709853
0.07324252463
0.08614491463
0.09924240704
0.1035434871
0.09988397714
0.08982086091
0.09283309779
0.1014765827
0.09567481014
0.08989551727
0.09508546438
0.1002603292
0.09609905432
0.0997529085
0.111308714
0.09108886301
0.09386808902
0.106635892
0.08810877712
0.09719443219
0.08758059048
0.08350376831
0.09731885392
0.1043401036
0.1035214612
0.09174146504
0.08175855436
0.08174029318
0.0875158961
0.08260152329
0.08269505116
0.1033699092
0.1018522824
0.09698169867
0.09389313485
0.09171676841
0.09497933065
0.08176453418
0.08718974697
0.07085869349
0.08566549537
0.1001531844
0.1062784404
0.1014179112
0.08832363299
0.08557205388
0.09317941075
0.09808679084
0.1049225305
0.09008306162
0.08913565544
0.1010395219
0.08603611276
0.09636567174
0.0832320321
0.09255952852
0.0891425479
0.09315781065
0.0969701892
0.09609815382
0.08418258643
0.08092858104
0.07540031706
0.0738392245
0.09042387159
0.09714905416
0.08400806232
0.08483136916
0.09363401989
0.1047078949
0.09739645994
0.09635788556
0.1171333722
0.1087590209
0.1106726858
0.1035658691
0.09287985261
0.08913215779
0.08485738469
0.09452357191
0.09762495748
0.09575212618
0.1013375913
0.1040814764
0.08798697319
0.08081776443
0.08232281563
0.1021225248
0.08036401488
0.08253047122
0.07446702588
0.1038382617
0.09665800255
0.1035446244
0.09923842139
0.1034489608
0.1000658998
0.09380803908
0.08979266157
0.08427349638
0.08773968152
0.07570757034
0.08419222277
0.09566875169
0.09967522821
0.09269571976
0.080758879
0.07764464402
0.09055471738
0.1009030232
0.1132962904
0.09950225528
0.1112689348
0.1168936402
0.1078195763
0.08972668001
0.08434074728
0.08869486758
0.08082013608
0.08228474903
0.08948504538
0.1046523782
0.1100449512
0.1067666517
0.0943153589
0.09000266563
0.08150709793
0.08727049051
0.0877027694
0.08728293077
0.09363422639
0.1100186618
0.0774066479
0.08555045521
0.07478173806
0.07834221852
0.08648004594
0.07828072127
0.08427166726
0.09004046166
0.09407649069
0.09514762628
0.09467016803
0.08708460216
0.08849143053
0.07934049096
0.07732101223
0.08150027378
0.07924674569
0.07672738126
0.07615747499
0.07345695401
0.1046579959
0.09695894489
0.1132160557
0.112652885
0.1116439615
0.09993822118
0.08930136441
0.07857634982
0.08572572096
0.0944451138
0.09226726984
0.09479384544
0.09337439163
0.08812296392
0.0858440805
0.07061080837
0.07323721248
0.0898050078
0.1007998689
0.1088998439
0.1032234021
0.09646489317
0.08778920063
0.07329924947
0.07606450492
0.08313733502
0.09202723468
0.09846971737
0.09962786432
0.08770971046
0.0946837586
0.1056711336
0.09750706418
0.08977346502
0.0881143019
0.1075753792
0.104086837
0.0911544832
0.0683483415
0.07406013343
0.109286221
0.09963083836
0.09149425799
0.09896868941
0.09041016236
0.09374651515
0.09277728563
0.08147487342
0.07421161436
0.08016885099
0.08585601419
0.08166607441
0.08861400667
0.09625482651
0.08580895888
0.07791091455
0.08584770759
0.09869374849
0.1149646006
0.1136057921
0.08804369421
0.09030877611
0.09210209224
0.08776311398
0.08134399024
0.09315811118
0.09025790672
0.09438836235
0.09508003767
0.09718746975
0.09286846366
0.08150669477
0.08441620785
0.1000156879
0.1019194796
0.09597462191
0.09442578572
0.1067944429
0.09707234043
0.08745630121
0.1025686995
0.09562457303
0.09010443397
0.09456315082
0.10435771
0.09023507781
0.09953082407
0.1048687095
0.09670309296
0.09793628923
0.09627163469
0.1057868934
0.1079637881
0.1107241829
0.09629044235
0.09853334035
0.09749295945
0.09326354678
0.09768699848
0.09760173278
0.1057357309
0.1033806194
0.1073709064
0.1116487921
0.1122302232
0.1138447664
0.112093613
0.100029639
0.09437206939
0.09183921155
0.08436209926
0.08124788487
0.06923707727
0.07510161302
0.08503544335
0.0960029083
0.07353489041
0.07657056914
0.09763150879
0.1149022044
0.09491726456
0.09639316625
0.100435669
0.09882813146
0.1047800305
0.08438063178
0.09092053135
0.09987248694
0.1036105326
0.1016932414
0.09518466158
0.09061455638
0.08989488985
0.0787598406
0.08635582438
0.1003176461
0.09766248229
0.09623555032
0.08998074149
0.09197367927
0.09555436826
0.0880433533
0.09514368439
0.09920940961
0.1009635786
0.09806200696
0.1108815643
0.1091179994
0.09291622837
0.0891176397
0.09080076868
0.09471202633
0.08650699723
0.09388842332
0.08887638863
0.0855734766
0.09652512292
0.1007429851
0.1019722272
0.09338250424
0.09641156542
0.1071899945
0.1009528523
0.09215088554
0.09762173641
0.0863382349
0.07877357497
0.08347880797
0.08743281273
0.07850478301
0.07619259868
0.08228210997
0.1033528413
0.1107519721
0.1233588752
0.1221196588
0.1240370578
0.1090058157
0.1002233833
0.09849149409
0.07832918663
0.09137267362
0.1034273347
0.1021656147
0.09615691218
0.09423852313
0.1130247757
0.1141237575
0.102658311
0.105548551
0.08904313628
0.08196724604
0.09385490917
0.1026427346
0.1035497445
0.1115267447
0.1088858954
0.1055990767
0.09379146802
0.08194087008
0.08799894904
0.0753103859
0.08376358602
0.09889623237
0.09569291196
0.09144150226
0.07796851675
0.09704198831
0.09972165665
0.09647391164
0.08801933533
0.07816143256
0.0817096029
0.08129483175
0.07278385755
0.0791305859
0.07812365159
0.08982830745
0.09467326769
0.09628468547
0.080400531
0.08769583635
0.07569577424
0.07458734901
0.07400585208
0.08599213746
0.1033552059
0.1016774497
0.09199970321
0.09269979617
0.08832520984
0.09326487407
0.1062203956
0.08830291123
0.08095125849
0.07838300476
0.08402110846
0.08762430977
0.08602616335
0.07894030265
0.08516695072
0.08200345956
0.08229825178
0.09649740493
0.1015232054
0.09318282318
0.09495316323
0.1037199916
0.1008881428
0.09449800887
0.09514250169
0.08882511464
0.08180577007
0.09136447096
0.1004762782
0.1007373348
0.1008623565
0.09774276305
0.09200416822
0.0912810995
0.1035850019
0.09734078797
0.1020775118
0.1047468029
0.1041781065
0.1079823313
0.1048047675
0.09292809769
0.0896187086
0.0954023782
0.08815046033
0.09147550919
0.09138903596
0.09935695669
0.115324031
0.09560997996
0.09297905154
0.09121820885
0.1074115177
0.09860350952
0.08782018586
0.09118724682
0.09501001026
0.1067869509
0.1134071489
0.1044111039
0.1037986249
0.1053452814
0.1001510621
0.08941164215
0.0842809223
0.09130497673
0.1007960588
0.0960387602
0.08947877167
0.08882602077
0.09856645336
0.09720869617
0.08723066812
0.07019921808
0.08192700315
0.06964560296
0.0849699279
0.08476296372
0.0895418086
0.09529940421
0.105922897
0.0960438304
0.0856322696
0.08418846156
0.1026948437
0.1019818524
0.1040491765