/*--------------------------------*- C++ -*----------------------------------*\
| =========                 |                                                 |
| \\      /  F ield         | OpenFOAM: The Open Source CFD Toolbox           |
|  \\    /   O peration     | Version:  2.4.0-MNF                             |
|   \\  /    A nd           | Web:      www.OpenFOAM.org                      |
|    \\/     M anipulation  |                                                 |
\*---------------------------------------------------------------------------*/
FoamFile
{
    version     2.0;
    format      ascii;
    class       volScalarField;
    location    "0.001";
    object      rhoM_mixture;
}
// * * * * * * * * * * * * * * * * * * * * * * * * * * * * * * * * * * * * * //

dimensions      [0 -3 0 0 0 0 0];

internalField   nonuniform List<scalar> 
5120
(
4.5831216e-06
4.5575728e-06
4.7482752e-06
4.8673152e-06
4.6914416e-06
4.7823488e-06
4.5559712e-06
4.6500176e-06
4.8163584e-06
4.7186176e-06
4.580952e-06
4.7345184e-06
4.8073296e-06
4.975712e-06
4.8986512e-06
4.9066464e-06
5.0618272e-06
4.8301536e-06
4.6287824e-06
4.5899936e-06
4.7924112e-06
4.705792e-06
4.7993472e-06
4.7457168e-06
4.7132832e-06
4.6989328e-06
4.6474208e-06
4.7606096e-06
4.5528704e-06
4.73984e-06
4.8774544e-06
4.9135952e-06
4.7775824e-06
4.763736e-06
4.6096016e-06
5.124448e-06
5.0165808e-06
5.0559248e-06
5.0213856e-06
4.8705056e-06
4.4337408e-06
4.400752e-06
4.4852912e-06
4.6213168e-06
4.7695872e-06
4.6378496e-06
4.5889216e-06
4.59312e-06
4.498544e-06
4.6569152e-06
4.842864e-06
4.9677296e-06
5.0984336e-06
5.338632e-06
5.1568944e-06
5.0771728e-06
5.0192288e-06
4.984224e-06
4.8200528e-06
4.572944e-06
4.84816e-06
5.0240208e-06
5.1164784e-06
5.2025936e-06
5.0113104e-06
5.0086368e-06
4.9512864e-06
4.9969472e-06
5.0277792e-06
4.9300512e-06
5.0453456e-06
4.7403952e-06
4.5528064e-06
4.3211328e-06
4.5985184e-06
4.6920864e-06
4.8068512e-06
4.69312e-06
4.6548352e-06
4.733976e-06
4.67288e-06
4.6123264e-06
4.502832e-06
4.5591744e-06
4.6750112e-06
4.8253616e-06
4.8604048e-06
4.9815632e-06
4.9151968e-06
4.6362608e-06
4.664432e-06
4.3216624e-06
4.534736e-06
4.585176e-06
4.9268608e-06
4.84236e-06
4.8875808e-06
4.7717568e-06
4.756296e-06
4.7541648e-06
4.6835232e-06
4.7515296e-06
4.952448e-06
4.8743536e-06
4.8626e-06
4.8641888e-06
4.7760064e-06
4.702136e-06
4.8126256e-06
4.8864576e-06
4.8323104e-06
4.950808e-06
4.6500432e-06
4.6117584e-06
4.51292e-06
4.7350736e-06
4.6378624e-06
4.7414544e-06
4.8259424e-06
4.729752e-06
4.7717312e-06
4.6191856e-06
4.66172e-06
4.813672e-06
4.8790432e-06
4.924264e-06
4.7079488e-06
4.8493344e-06
5.083152e-06
5.1421296e-06
5.1569712e-06
5.0368592e-06
4.874832e-06
5.207488e-06
5.15648e-06
5.0480576e-06
5.0735424e-06
5.0656112e-06
4.9109856e-06
4.7632704e-06
5.1022176e-06
4.8604688e-06
4.9943504e-06
4.807872e-06
5.004464e-06
4.912536e-06
4.9821568e-06
4.7807856e-06
4.6612288e-06
4.820672e-06
5.0007824e-06
4.8180112e-06
5.1979424e-06
5.0395968e-06
5.1660768e-06
5.3887216e-06
5.377032e-06
5.1777408e-06
4.9454992e-06
5.0490784e-06
4.5671568e-06
4.5128944e-06
4.5713552e-06
4.6393744e-06
4.651632e-06
4.8503936e-06
5.0034048e-06
4.863608e-06
4.8540496e-06
4.842928e-06
4.8960928e-06
4.9880208e-06
4.9221072e-06
4.8190064e-06
4.7015808e-06
4.689336e-06
4.7648336e-06
4.7526016e-06
4.8344544e-06
4.7691216e-06
4.77124e-06
4.7622112e-06
4.8131936e-06
4.670736e-06
4.6664736e-06
4.5458576e-06
4.5894512e-06
4.6935984e-06
4.7828656e-06
4.7461696e-06
4.943872e-06
4.908816e-06
4.8471776e-06
4.9220816e-06
4.8652736e-06
4.9348944e-06
4.6787824e-06
4.5735632e-06
4.6006496e-06
4.7605712e-06
4.491672e-06
4.5841424e-06
4.6075088e-06
4.8206464e-06
4.8828272e-06
4.7291968e-06
4.7100672e-06
4.5602208e-06
4.5108016e-06
4.6782144e-06
4.7414032e-06
4.6739136e-06
4.6080256e-06
4.8014912e-06
4.867392e-06
4.5953152e-06
4.6660208e-06
4.6150384e-06
4.7670032e-06
4.5214448e-06
4.8407968e-06
4.6893488e-06
4.6962336e-06
4.71008e-06
4.5453536e-06
4.5995776e-06
4.529944e-06
4.7084656e-06
4.8487408e-06
4.9252464e-06
4.9560784e-06
4.9927616e-06
4.991728e-06
4.7706592e-06
4.6963104e-06
4.8062832e-06
4.9066848e-06
4.7398272e-06
4.7849968e-06
5.0220176e-06
4.508256e-06
4.7058944e-06
4.5815072e-06
4.326416e-06
4.4709664e-06
4.5804096e-06
4.51664e-06
4.6181264e-06
4.7849712e-06
4.7111392e-06
4.840784e-06
4.822752e-06
4.6101952e-06
4.684544e-06
4.6218208e-06
4.6712912e-06
4.9237088e-06
4.781328e-06
4.7781504e-06
4.5725168e-06
4.5325792e-06
4.5628688e-06
4.7903184e-06
4.9471008e-06
4.8376576e-06
4.826472e-06
4.794568e-06
5.0666448e-06
5.0645136e-06
4.8865088e-06
4.8158032e-06
4.7323744e-06
4.733408e-06
4.7307856e-06
4.852512e-06
4.5798928e-06
4.667016e-06
4.578808e-06
4.4321136e-06
4.6106864e-06
4.8147312e-06
4.6213552e-06
4.5001968e-06
4.4268432e-06
4.5894768e-06
4.7526144e-06
5.0427104e-06
4.9396096e-06
4.887504e-06
4.9650944e-06
4.7817808e-06
4.6643808e-06
4.6329808e-06
4.6552624e-06
4.6568512e-06
4.762096e-06
4.709512e-06
4.7016064e-06
4.8190448e-06
4.845576e-06
5.1532128e-06
5.0968704e-06
4.9868336e-06
4.808312e-06
4.9029136e-06
4.7318064e-06
4.6664864e-06
4.8227392e-06
4.867392e-06
4.8779584e-06
4.9847536e-06
4.7408736e-06
4.7068512e-06
4.9332288e-06
4.8976816e-06
4.8965712e-06
4.9842368e-06
5.0272624e-06
5.1505264e-06
5.2887216e-06
4.7753744e-06
4.943304e-06
4.8120576e-06
4.7753872e-06
4.8859152e-06
5.1324944e-06
4.7493728e-06
4.8466224e-06
4.4539424e-06
4.629816e-06
4.6861584e-06
4.5915696e-06
4.5846592e-06
4.7234096e-06
4.958816e-06
4.951376e-06
4.8726496e-06
4.7307984e-06
4.534168e-06
4.674456e-06
5.0039728e-06
4.9008592e-06
5.0427488e-06
5.1447392e-06
5.0889136e-06
5.002824e-06
4.9220432e-06
4.819472e-06
4.887504e-06
4.867832e-06
4.762096e-06
4.6282016e-06
4.437448e-06
4.4422272e-06
4.6128304e-06
4.869472e-06
4.7015808e-06
4.8498128e-06
4.9555744e-06
4.9938464e-06
4.7068896e-06
4.6893616e-06
4.6988944e-06
4.363048e-06
4.4082432e-06
4.7737728e-06
4.7971392e-06
4.6850096e-06
4.9023456e-06
4.6855648e-06
4.8710608e-06
5.0033792e-06
5.1006288e-06
5.0751056e-06
5.1239824e-06
4.802008e-06
4.6749984e-06
4.7143552e-06
4.545896e-06
4.7345056e-06
4.6760576e-06
4.7414032e-06
4.599048e-06
4.584168e-06
4.8397632e-06
4.881768e-06
4.8312896e-06
4.7659184e-06
4.7090336e-06
4.6606864e-06
4.6633344e-06
4.7217568e-06
4.8918304e-06
5.0166832e-06
4.775464e-06
4.6995008e-06
4.572504e-06
4.4938288e-06
4.4385456e-06
4.4141072e-06
4.874768e-06
4.93372e-06
5.0947264e-06
5.1734016e-06
4.9220432e-06
4.9550448e-06
4.7127536e-06
4.5666528e-06
4.4300848e-06
4.542176e-06
4.6208384e-06
4.4130864e-06
4.546464e-06
4.7388064e-06
4.6670672e-06
4.6628048e-06
4.8838352e-06
5.0506672e-06
4.8960288e-06
4.9093328e-06
4.8848944e-06
4.7547328e-06
4.6107248e-06
4.4709536e-06
4.1643376e-06
4.3067568e-06
4.3524176e-06
4.24136e-06
4.5724144e-06
4.5633984e-06
4.5463872e-06
4.5299184e-06
4.6478992e-06
4.7207104e-06
4.658e-06
4.8327888e-06
4.7658672e-06
4.489024e-06
4.6346336e-06
4.7642912e-06
4.8386784e-06
4.7222736e-06
4.8211248e-06
4.786624e-06
4.7042928e-06
4.7526144e-06
4.826472e-06
4.8785648e-06
4.8407968e-06
4.7982624e-06
4.7089568e-06
4.8529648e-06
4.8232048e-06
4.72704e-06
4.6739264e-06
4.6000944e-06
4.8865216e-06
4.94652e-06
4.8556256e-06
4.951312e-06
4.6840656e-06
4.8110496e-06
4.652704e-06
4.9523712e-06
4.9156624e-06
4.7084272e-06
4.7403696e-06
4.8057408e-06
4.6946832e-06
4.6431712e-06
4.8249088e-06
4.89772e-06
4.8211888e-06
4.8259296e-06
5.0459648e-06
4.9986896e-06
4.9301024e-06
4.6872816e-06
4.7080128e-06
4.7138384e-06
4.7042032e-06
4.7557536e-06
4.741416e-06
4.5735248e-06
4.6192496e-06
4.5193776e-06
4.3419152e-06
4.4858848e-06
4.3631248e-06
4.3918e-06
4.3450416e-06
4.3513712e-06
4.6054032e-06
4.6170928e-06
4.83656e-06
4.6181648e-06
4.4412064e-06
4.6261216e-06
4.7547072e-06
4.5682032e-06
4.9013248e-06
4.9034688e-06
4.8981728e-06
5.0650688e-06
4.9407328e-06
5.132584e-06
4.8987664e-06
4.8164352e-06
5.0523328e-06
4.7473568e-06
4.6915056e-06
4.6437008e-06
4.5097936e-06
4.6845952e-06
4.7616176e-06
4.7446064e-06
5.0432144e-06
4.932144e-06
4.8407584e-06
4.9720048e-06
5.0331776e-06
4.8551984e-06
4.6266768e-06
4.7865984e-06
4.6521488e-06
4.6048224e-06
4.5129328e-06
4.7238752e-06
4.9290176e-06
5.1251056e-06
4.9604048e-06
4.994376e-06
5.0411472e-06
4.8912752e-06
4.9874656e-06
4.9895712e-06
4.7632192e-06
4.6718208e-06
4.8907584e-06
5.083152e-06
4.7547456e-06
4.7876576e-06
4.7276208e-06
4.5007264e-06
4.6090848e-06
4.55756e-06
4.8487408e-06
5.0389648e-06
4.9991552e-06
4.9502784e-06
4.7361456e-06
4.8870256e-06
4.7063856e-06
4.8349968e-06
4.8259296e-06
4.9354112e-06
4.962472e-06
5.1287744e-06
5.027856e-06
4.8870512e-06
4.8981984e-06
4.950808e-06
5.078864e-06
4.9252976e-06
4.9364832e-06
4.8195744e-06
4.7377728e-06
4.6341296e-06
4.7951488e-06
4.7961952e-06
4.7483776e-06
4.6027808e-06
4.7722736e-06
4.779184e-06
4.6405104e-06
4.6405232e-06
4.7000304e-06
4.8371024e-06
4.8498256e-06
4.7031568e-06
4.620928e-06
4.6108144e-06
4.4646752e-06
4.5873712e-06
4.5320368e-06
4.7217184e-06
4.7774928e-06
4.7328656e-06
4.6228928e-06
4.5278e-06
4.7042544e-06
4.6166016e-06
4.4072608e-06
4.5331856e-06
4.6479376e-06
4.5868288e-06
4.4794784e-06
4.4826304e-06
4.4704624e-06
4.5614208e-06
4.357752e-06
4.4996544e-06
4.6213424e-06
4.5910912e-06
4.5894768e-06
4.416768e-06
4.5076112e-06
4.7047456e-06
4.9682976e-06
5.0118528e-06
4.917264e-06
4.7982112e-06
4.9167088e-06
4.8732048e-06
4.6213808e-06
4.60012e-06
4.518848e-06
4.7356032e-06
4.4603232e-06
4.1579824e-06
4.651064e-06
4.6377472e-06
4.7238496e-06
4.5596656e-06
4.6908992e-06
4.65264e-06
4.5612672e-06
4.6786672e-06
4.8306448e-06
4.873128e-06
4.9980192e-06
5.059696e-06
4.9044768e-06
4.7344288e-06
4.6817936e-06
4.6940512e-06
4.5909888e-06
4.65264e-06
4.6749472e-06
4.7264848e-06
4.9147184e-06
4.7084912e-06
4.6908736e-06
4.6876704e-06
4.524016e-06
4.6499408e-06
4.7211248e-06
4.4554416e-06
4.4416336e-06
4.4613696e-06
4.584672e-06
4.59848e-06
4.7833824e-06
4.7706208e-06
4.9316528e-06
5.0937696e-06
5.028992e-06
5.1527728e-06
5.0868592e-06
4.9449824e-06
4.825904e-06
4.5878112e-06
4.7435088e-06
4.4954048e-06
4.5411168e-06
4.472568e-06
4.5777744e-06
4.7398528e-06
4.8918432e-06
4.8811616e-06
4.9204672e-06
4.9645136e-06
4.9682848e-06
4.8864704e-06
4.8051728e-06
4.6037248e-06
4.7121728e-06
4.8610112e-06
4.9545408e-06
4.8211376e-06
4.569728e-06
4.6600928e-06
4.6457552e-06
4.7478096e-06
4.8456144e-06
4.696272e-06
4.6495264e-06
4.6920224e-06
4.7005344e-06
4.7313408e-06
4.7148336e-06
4.7903184e-06
4.6850992e-06
4.766888e-06
4.8312128e-06
4.9619424e-06
4.9895584e-06
4.8466096e-06
4.9416896e-06
4.568152e-06
4.8084016e-06
4.8998256e-06
4.9051472e-06
4.66172e-06
4.6797648e-06
4.7206592e-06
4.6229312e-06
4.6521616e-06
4.606992e-06
4.778616e-06
4.6824384e-06
4.5836128e-06
4.5128816e-06
4.398168e-06
4.3976e-06
4.5128944e-06
4.7589184e-06
4.8194976e-06
4.7217568e-06
4.9225984e-06
4.9614256e-06
4.7376832e-06
4.8354752e-06
4.900872e-06
4.7169904e-06
4.7818704e-06
4.5958576e-06
4.8068e-06
4.8232304e-06
4.7727776e-06
4.7403184e-06
4.9443888e-06
4.8923472e-06
4.8461056e-06
4.860456e-06
4.679248e-06
4.6447472e-06
4.6527168e-06
4.6202832e-06
4.8152864e-06
4.595832e-06
4.4358976e-06
4.497536e-06
4.6085808e-06
4.7531312e-06
4.7206976e-06
4.8689424e-06
4.73984e-06
4.8275312e-06
4.8031056e-06
4.8392464e-06
5.0166832e-06
5.1032896e-06
5.1766048e-06
5.0293936e-06
4.9985616e-06
4.7759296e-06
4.621872e-06
4.5559968e-06
4.6691728e-06
4.5007904e-06
4.437576e-06
4.3796832e-06
4.4370464e-06
4.7425904e-06
4.6962976e-06
4.6771552e-06
4.7961312e-06
4.6659824e-06
4.7531312e-06
4.884352e-06
5.095256e-06
5.418896e-06
5.1728976e-06
4.9884736e-06
4.819536e-06
4.8514272e-06
4.658e-06
4.4151536e-06
4.3933888e-06
4.7701168e-06
4.954528e-06
5.1490144e-06
5.280248e-06
5.1294064e-06
5.17672e-06
5.2601104e-06
5.2350912e-06
5.1670592e-06
4.8259296e-06
4.7674432e-06
4.8184768e-06
4.549112e-06
4.5538912e-06
4.7441536e-06
4.7775824e-06
4.663864e-06
4.8152736e-06
4.7281504e-06
4.8461056e-06
4.782904e-06
4.6187328e-06
4.6357056e-06
4.5607376e-06
4.6622112e-06
4.9502144e-06
4.7260064e-06
4.8115664e-06
4.7334848e-06
4.9024608e-06
4.6830064e-06
4.8243408e-06
5.0772752e-06
4.8896736e-06
4.7190448e-06
4.5804096e-06
4.6627792e-06
4.510776e-06
4.5713552e-06
4.656928e-06
4.8817808e-06
4.980064e-06
4.9513632e-06
4.8605072e-06
4.7456912e-06
4.8848944e-06
4.8928896e-06
4.9099008e-06
4.8280224e-06
4.760584e-06
4.7324384e-06
4.6819728e-06
4.6192752e-06
4.4959984e-06
4.650624e-06
4.5693392e-06
4.4088752e-06
4.5969808e-06
4.6240416e-06
4.8498768e-06
4.8424368e-06
4.8679216e-06
4.883912e-06
5.096456e-06
5.2430736e-06
5.1782576e-06
5.0156112e-06
4.75844e-06
4.7308112e-06
4.978424e-06
5.010832e-06
5.1633392e-06
5.1441968e-06
4.9885504e-06
4.9029776e-06
4.949232e-06
5.139456e-06
5.24576e-06
4.9556256e-06
4.8838736e-06
4.5124416e-06
4.6092128e-06
4.828112e-06
4.9370384e-06
4.627232e-06
4.6341424e-06
4.603336e-06
4.6282912e-06
4.6861968e-06
4.8051856e-06
4.8099904e-06
4.7457168e-06
4.6733968e-06
4.6951488e-06
4.7557408e-06
4.7812896e-06
4.6309392e-06
4.6840784e-06
4.7196896e-06
4.4980784e-06
4.8216672e-06
5.0910704e-06
5.144184e-06
5.0798976e-06
5.236112e-06
5.1027216e-06
5.124512e-06
5.0650304e-06
4.6484544e-06
4.564496e-06
4.5916208e-06
4.6224656e-06
4.7871792e-06
4.7239264e-06
4.6070688e-06
4.6314816e-06
4.501256e-06
4.635176e-06
4.621368e-06
4.839208e-06
5.1080816e-06
5.0426976e-06
5.0230512e-06
5.0113488e-06
5.021488e-06
4.9178832e-06
5.1835664e-06
5.1421296e-06
5.2122288e-06
4.997528e-06
4.9045408e-06
4.8280608e-06
4.6771936e-06
4.6464128e-06
4.8291968e-06
4.8732944e-06
4.8042032e-06
4.7680496e-06
4.8658416e-06
5.056544e-06
5.0145008e-06
4.9055872e-06
5.0905152e-06
5.1133776e-06
5.1330496e-06
5.4402208e-06
5.1001376e-06
4.7722864e-06
4.6840656e-06
4.7218336e-06
4.6346848e-06
4.9683744e-06
5.0661024e-06
4.9714496e-06
4.9496976e-06
4.906168e-06
5.0087136e-06
4.7451488e-06
4.8067744e-06
4.9411856e-06
4.67868e-06
4.6877344e-06
4.5612928e-06
4.6914672e-06
4.7201424e-06
4.6425776e-06
4.8264464e-06
5.0899984e-06
4.9157264e-06
4.9316912e-06
4.7266e-06
4.7516192e-06
4.706992e-06
4.8355904e-06
5.0480704e-06
4.9035072e-06
4.8418432e-06
4.8142016e-06
4.9768096e-06
4.747784e-06
4.8312512e-06
4.8944784e-06
4.7478096e-06
4.7372048e-06
4.7696256e-06
4.8200784e-06
4.7908736e-06
4.9997104e-06
4.7234096e-06
4.6447472e-06
4.8604432e-06
4.8939104e-06
4.9975024e-06
5.0782704e-06
5.0761776e-06
4.9523584e-06
4.8960032e-06
4.955536e-06
4.9189168e-06
4.8089056e-06
4.808376e-06
4.870608e-06
4.8376832e-06
4.730824e-06
4.8413008e-06
4.9560656e-06
5.0055104e-06
4.9640352e-06
4.9130016e-06
5.0522048e-06
5.1308672e-06
5.1287872e-06
5.0729616e-06
4.8620192e-06
4.7254768e-06
4.6909376e-06
4.4746992e-06
4.542176e-06
4.5171824e-06
4.738264e-06
4.6946576e-06
4.9417664e-06
4.8832928e-06
4.9236832e-06
4.906672e-06
5.010832e-06
4.814808e-06
4.7845056e-06
4.9268736e-06
4.8886272e-06
4.888576e-06
4.7349456e-06
4.6786544e-06
4.5517088e-06
4.6558048e-06
4.5766256e-06
4.6403696e-06
4.6302944e-06
4.8184384e-06
4.891224e-06
4.8328144e-06
4.9560656e-06
5.1797824e-06
5.3041056e-06
5.3036144e-06
5.5368896e-06
5.4582272e-06
5.4630448e-06
5.4264e-06
4.9922576e-06
5.041664e-06
5.02836e-06
4.8540624e-06
4.95976e-06
4.8221584e-06
4.7738624e-06
4.83284e-06
4.798856e-06
4.751568e-06
4.6351504e-06
4.75472e-06
4.9337712e-06
4.813104e-06
4.711088e-06
4.9911344e-06
5.0161152e-06
5.1059376e-06
4.9885504e-06
4.8344672e-06
4.859448e-06
4.740976e-06
4.494384e-06
4.7648208e-06
4.5124544e-06
4.6511408e-06
4.8142656e-06
4.854656e-06
4.6712912e-06
4.7111008e-06
4.6733584e-06
4.5958576e-06
4.5931712e-06
4.8126128e-06
4.765312e-06
4.7451232e-06
4.7138128e-06
4.6633472e-06
4.7270912e-06
4.724392e-06
4.722816e-06
4.880632e-06
4.8024992e-06
4.7047328e-06
4.5676352e-06
4.2934912e-06
4.3593792e-06
4.1191936e-06
4.3859744e-06
4.497032e-06
4.463048e-06
4.8620064e-06
5.0039088e-06
4.7063984e-06
4.7494368e-06
4.5257072e-06
4.798792e-06
4.7180368e-06
4.5761728e-06
4.53524e-06
4.7058304e-06
4.9635312e-06
4.7430304e-06
4.6782016e-06
4.5766512e-06
4.4241696e-06
4.1882336e-06
4.3290896e-06
4.624016e-06
4.6123648e-06
4.8307216e-06
4.9343136e-06
4.8094224e-06
4.8816784e-06
5.0176912e-06
4.95768e-06
4.8551472e-06
4.8456016e-06
4.8280736e-06
4.93328e-06
5.0671872e-06
5.2005392e-06
5.0103024e-06
5.0459008e-06
4.967264e-06
5.0453712e-06
5.1378416e-06
5.0023328e-06
4.8710992e-06
5.0480448e-06
4.923696e-06
4.6860944e-06
4.8008848e-06
4.9210224e-06
4.9816272e-06
4.8450464e-06
4.771176e-06
4.7270528e-06
4.6829936e-06
4.7233584e-06
4.6792608e-06
4.7722096e-06
4.6988816e-06
4.8040752e-06
4.9565952e-06
4.8317296e-06
4.815752e-06
4.689272e-06
4.8290304e-06
4.8051728e-06
4.7164224e-06
4.8891952e-06
4.5629584e-06
4.3801488e-06
4.4566288e-06
4.3870592e-06
4.5634752e-06
4.5937392e-06
4.8285904e-06
4.7302944e-06
4.8004448e-06
4.7712016e-06
5.0491168e-06
5.0485104e-06
5.0495824e-06
5.1005776e-06
5.1346e-06
4.9534304e-06
4.9550448e-06
4.922624e-06
4.800432e-06
5.0081456e-06
4.8721328e-06
4.8035584e-06
4.8859408e-06
4.790848e-06
4.7578848e-06
4.7106096e-06
4.8998e-06
4.8657392e-06
4.8678576e-06
4.9964304e-06
4.6797008e-06
4.6420352e-06
4.8642016e-06
4.6032848e-06
4.4593024e-06
4.5337024e-06
4.3578032e-06
4.703144e-06
4.95024e-06
5.0608704e-06
5.0289664e-06
4.807304e-06
4.5740416e-06
4.5161232e-06
4.6197536e-06
4.7834336e-06
4.9300768e-06
4.8859792e-06
4.800432e-06
4.8062704e-06
4.6489712e-06
4.7048224e-06
4.6734608e-06
4.8190576e-06
4.873256e-06
4.7616688e-06
4.7409632e-06
4.7766256e-06
4.8015936e-06
4.840848e-06
4.7330064e-06
4.5990992e-06
4.8323616e-06
4.9062064e-06
4.7861072e-06
4.8557152e-06
4.9019696e-06
4.8716672e-06
4.7754896e-06
4.8604432e-06
4.7111264e-06
4.5937136e-06
4.6096528e-06
4.8014528e-06
4.9146416e-06
4.9364448e-06
4.9119808e-06
4.813672e-06
4.8503552e-06
5.041096e-06
4.7530928e-06
4.8620448e-06
4.7446064e-06
4.7775824e-06
5.1915232e-06
5.1256352e-06
5.1432016e-06
4.9689168e-06
5.2473744e-06
5.0932912e-06
5.109192e-06
5.0703648e-06
5.0379312e-06
4.9268992e-06
4.9986384e-06
4.9343264e-06
5.2261008e-06
5.4194768e-06
5.297776e-06
4.8483008e-06
4.9960544e-06
4.9370512e-06
4.8668752e-06
4.7217952e-06
4.5188224e-06
4.6904336e-06
4.8955632e-06
5.0167728e-06
5.1618144e-06
5.2813712e-06
5.3196176e-06
5.0948928e-06
5.2559248e-06
5.3116736e-06
5.1442608e-06
5.0507184e-06
4.7813152e-06
4.8371152e-06
4.645832e-06
4.6080896e-06
4.7053392e-06
4.6219104e-06
4.8350224e-06
4.79148e-06
4.7786928e-06
4.8923984e-06
4.9689168e-06
5.2314224e-06
5.0247424e-06
4.9891184e-06
4.9471648e-06
5.0114768e-06
4.7393616e-06
4.6957296e-06
4.582024e-06
4.5729696e-06
4.6574832e-06
4.7334336e-06
4.5793888e-06
4.835992e-06
4.8126128e-06
4.8440256e-06
4.935928e-06
4.9279328e-06
4.9619424e-06
5.074072e-06
5.11392e-06
5.1659744e-06
5.2228592e-06
5.2371968e-06
5.0283856e-06
4.89444e-06
4.8689168e-06
4.9193696e-06
4.8641248e-06
4.8157904e-06
4.874832e-06
4.9757632e-06
5.0682208e-06
4.8205568e-06
4.758376e-06
5.0187632e-06
4.854592e-06
5.0240976e-06
5.0331392e-06
5.134096e-06
5.2478144e-06
5.2648256e-06
5.0926848e-06
4.9602896e-06
5.0240592e-06
4.9629248e-06
4.9576288e-06
4.8396864e-06
4.7775312e-06
4.6494752e-06
4.6489712e-06
4.5660592e-06
4.6797264e-06
4.9630016e-06
5.1091536e-06
5.021992e-06
5.1702752e-06
5.2260496e-06
5.1171232e-06
5.0320928e-06
4.858816e-06
4.8125744e-06
4.9543872e-06
5.0176784e-06
4.872624e-06
4.8343904e-06
4.944376e-06
5.0087008e-06
4.7446192e-06
4.7228288e-06
4.6276848e-06
4.6776336e-06
4.7106224e-06
5.023632e-06
4.8488176e-06
4.6548608e-06
4.4705008e-06
4.7000432e-06
4.753712e-06
4.8318192e-06
4.9072528e-06
4.954024e-06
5.1798336e-06
5.1112848e-06
5.2159744e-06
5.3780656e-06
5.2973104e-06
5.1298848e-06
5.019344e-06
5.0039472e-06
5.2234144e-06
5.2521152e-06
5.2160256e-06
5.024704e-06
5.038512e-06
5.1511456e-06
4.9120192e-06
4.6490224e-06
4.7351248e-06
4.7569024e-06
4.6256304e-06
4.748352e-06
4.9338224e-06
4.924832e-06
5.0783984e-06
4.9354368e-06
4.912032e-06
4.9635696e-06
5.0443504e-06
5.1623056e-06
5.0995952e-06
5.289832e-06
5.1405408e-06
4.5065776e-06
4.5565648e-06
4.6182032e-06
4.6686688e-06
4.7084784e-06
4.6813792e-06
4.7701168e-06
4.85144e-06
4.7340272e-06
4.7361328e-06
4.6511152e-06
4.6091616e-06
4.727672e-06
4.879056e-06
4.7558048e-06
4.5884432e-06
4.5448624e-06
4.5230592e-06
4.549616e-06
4.53688e-06
4.572504e-06
4.5942304e-06
4.6074576e-06
4.5697536e-06
4.6196768e-06
4.876344e-06
4.9087648e-06
5.1064288e-06
5.0612848e-06
5.2467552e-06
4.6925136e-06
4.584104e-06
4.4592512e-06
4.3715856e-06
4.613864e-06
4.7047456e-06
5.0144752e-06
4.9278816e-06
5.001248e-06
4.861528e-06
4.8971392e-06
4.9024352e-06
4.8817168e-06
4.9401648e-06
4.9890544e-06
4.912536e-06
4.9523712e-06
4.6808368e-06
4.5798928e-06
4.5480144e-06
4.6707232e-06
4.8673536e-06
4.7233328e-06
4.977288e-06
4.8923216e-06
4.740912e-06
4.7621856e-06
4.7382256e-06
4.8567104e-06
4.8009616e-06
4.8454992e-06
4.6101568e-06
4.7908096e-06
4.8137104e-06
4.9709712e-06
4.9667472e-06
5.0278304e-06
4.9619296e-06
4.8779584e-06
4.6622112e-06
4.4380032e-06
4.381144e-06
4.4236656e-06
4.580384e-06
4.8789536e-06
5.2588976e-06
5.1701344e-06
5.239768e-06
5.070792e-06
4.775336e-06
4.966192e-06
4.9454992e-06
4.887064e-06
5.0044512e-06
5.0209072e-06
4.9432912e-06
4.9895328e-06
4.9295088e-06
4.9018928e-06
4.6383408e-06
4.6271424e-06
4.7802048e-06
4.9561296e-06
5.1761008e-06
5.3648128e-06
5.5709248e-06
5.5485536e-06
5.3073344e-06
5.303072e-06
5.1749776e-06
5.024704e-06
5.0474384e-06
5.018272e-06
4.7552368e-06
4.83492e-06
4.9002784e-06
4.7509488e-06
4.6213168e-06
4.5771936e-06
4.4810032e-06
4.3827072e-06
4.4172592e-06
4.663296e-06
4.7818192e-06
5.0140352e-06
5.0523072e-06
5.1665552e-06
5.144248e-06
5.0661152e-06
4.9710224e-06
4.7743792e-06
4.6166272e-06
4.7999792e-06
5.0412368e-06
5.2893792e-06
5.3090128e-06
5.2367568e-06
5.3169312e-06
5.0714752e-06
4.9481728e-06
4.7728416e-06
4.8526016e-06
4.9939232e-06
4.8360688e-06
4.872184e-06
4.8020464e-06
4.6840784e-06
4.9449824e-06
4.8631168e-06
4.8328272e-06
4.889712e-06
5.1516752e-06
5.1532512e-06
4.9603536e-06
5.0145904e-06
4.8094864e-06
4.739336e-06
4.7282016e-06
4.6798288e-06
4.7632448e-06
4.88656e-06
5.0714368e-06
5.161272e-06
5.114488e-06
5.1033152e-06
5.1702368e-06
5.2276512e-06
5.261648e-06
4.9922448e-06
4.8588928e-06
5.1723552e-06
5.1596064e-06
5.074576e-06
4.9301024e-06
5.1676016e-06
5.153264e-06
5.2600592e-06
5.2074368e-06
5.1590896e-06
4.8679088e-06
4.5879008e-06
4.3928848e-06
4.5140432e-06
4.6729184e-06
4.9524352e-06
4.918968e-06
4.792488e-06
4.9620064e-06
5.0501888e-06
5.1947008e-06
5.0921936e-06
5.0321568e-06
5.1586368e-06
5.1873248e-06
5.125144e-06
5.057176e-06
5.0120192e-06
4.733032e-06
4.6644192e-06
4.5225424e-06
4.4827072e-06
4.40832e-06
4.6155808e-06
4.5246608e-06
4.5300336e-06
4.6107888e-06
4.830256e-06
5.071488e-06
5.1357744e-06
5.0709456e-06
5.2351424e-06
5.2106784e-06
5.1065056e-06
4.9747424e-06
5.0369616e-06
4.9694976e-06
4.9137104e-06
4.5512816e-06
4.5146112e-06
4.5799312e-06
4.6633088e-06
4.6091104e-06
4.480512e-06
4.6622752e-06
4.7589824e-06
4.9359152e-06
5.0724832e-06
4.7913648e-06
4.8626128e-06
4.9231664e-06
5.0077184e-06
5.2176144e-06
5.240464e-06
5.161272e-06
4.8567744e-06
4.9093584e-06
4.9178576e-06
4.8242896e-06
4.77168e-06
4.9300384e-06
4.7429792e-06
4.7849584e-06
4.7461824e-06
4.6521744e-06
4.616072e-06
4.7855392e-06
4.9045792e-06
5.0076672e-06
4.8498768e-06
4.9243024e-06
4.8068e-06
4.8365472e-06
4.8041264e-06
4.8689552e-06
4.9348432e-06
4.962472e-06
4.6797776e-06
4.6765872e-06
4.5894384e-06
4.916192e-06
5.0352448e-06
4.7334336e-06
4.7345056e-06
4.7430048e-06
4.8418176e-06
4.8933808e-06
4.7690832e-06
4.7403824e-06
4.7409248e-06
4.7589952e-06
5.0374272e-06
4.7759936e-06
4.7446192e-06
4.7430176e-06
4.7392592e-06
4.850304e-06
4.9528496e-06
5.064424e-06
5.1866288e-06
4.8609216e-06
4.8003808e-06
5.070352e-06
5.0900112e-06
5.1277152e-06
4.9577184e-06
5.0182848e-06
5.0873376e-06
5.1304016e-06
5.0793936e-06
4.899232e-06
4.7780736e-06
4.9938464e-06
5.1643984e-06
4.9024352e-06
4.8487792e-06
4.47364e-06
4.4864144e-06
4.2222944e-06
4.219104e-06
4.1441104e-06
4.3593024e-06
4.3433504e-06
4.5490352e-06
4.6999792e-06
4.8025504e-06
4.762664e-06
4.9390928e-06
4.644696e-06
4.7350096e-06
4.7525376e-06
4.3795168e-06
4.2403008e-06
4.3497824e-06
4.532088e-06
4.7419584e-06
4.8412752e-06
4.587824e-06
4.5771808e-06
4.6165248e-06
4.7547072e-06
4.7950464e-06
4.8561424e-06
4.8976048e-06
4.8705184e-06
4.7499024e-06
4.8227264e-06
4.6973184e-06
4.6277104e-06
4.4273728e-06
4.5420992e-06
4.43688e-06
4.4124416e-06
4.471432e-06
4.4783808e-06
4.4608656e-06
4.2573504e-06
4.4130352e-06
4.4460496e-06
4.52572e-06
4.623448e-06
4.5878112e-06
4.5181904e-06
4.3805632e-06
4.5453024e-06
4.6388448e-06
4.7950592e-06
4.7190576e-06
4.5612288e-06
4.4470192e-06
4.5596272e-06
4.7275568e-06
4.81468e-06
4.7307728e-06
4.9412112e-06
4.712728e-06
4.4990992e-06
4.4841936e-06
4.7472544e-06
4.649488e-06
4.5017984e-06
4.5077008e-06
4.82868e-06
5.1453456e-06
4.967832e-06
4.6437008e-06
4.7068896e-06
4.7345184e-06
4.8269504e-06
4.7743408e-06
4.6430688e-06
5.0920528e-06
5.0894176e-06
5.033592e-06
4.815184e-06
4.719032e-06
4.7759168e-06
4.8062192e-06
4.9560528e-06
5.1882816e-06
5.0958368e-06
5.1601104e-06
4.9241872e-06
4.7733072e-06
4.4943456e-06
4.587888e-06
4.4879264e-06
4.5756688e-06
4.4773216e-06
4.5108272e-06
4.8365216e-06
4.6451616e-06
4.7790816e-06
4.9576288e-06
4.9161792e-06
4.7961184e-06
4.8274928e-06
4.868968e-06
4.6553648e-06
4.871616e-06
4.9773904e-06
4.788704e-06
4.7737984e-06
4.7152992e-06
4.6945936e-06
4.6372432e-06
4.809448e-06
4.7732816e-06
4.8923088e-06
4.922056e-06
4.7934448e-06
5.2403616e-06
5.169656e-06
5.021424e-06
5.0395456e-06
4.9497744e-06
5.0151456e-06
4.84936e-06
4.9391568e-06
5.1150048e-06
5.4189216e-06
5.5347584e-06
5.5135232e-06
5.2473232e-06
5.2138304e-06
4.842424e-06
4.8488176e-06
4.879624e-06
4.9720688e-06
5.0740848e-06
5.1973232e-06
4.7669648e-06
5.0119168e-06
4.8376576e-06
4.7047968e-06
4.8418688e-06
4.8190576e-06
4.7823488e-06
4.8710992e-06
5.1059632e-06
5.3621008e-06
5.2111824e-06
5.0576416e-06
4.946016e-06
5.0013248e-06
4.7871792e-06
4.710648e-06
4.8466864e-06
4.9014016e-06
5.0879312e-06
5.0114384e-06
5.0278304e-06
4.9677936e-06
5.1261264e-06
4.9268224e-06
4.8449952e-06
4.7190448e-06
4.76052e-06
4.7786416e-06
4.9566464e-06
5.1219152e-06
5.0161792e-06
5.0459392e-06
4.9024736e-06
5.005032e-06
4.8961056e-06
4.669224e-06
4.5809904e-06
4.689336e-06
4.7871024e-06
4.8939104e-06
4.8476944e-06
4.8030544e-06
4.7382768e-06
4.9136592e-06
4.9838096e-06
5.0459776e-06
5.0581584e-06
4.8704928e-06
5.020352e-06
5.1282704e-06
5.1962768e-06
5.24248e-06
5.0639328e-06
5.1255712e-06
4.941728e-06
4.8428512e-06
4.8992064e-06
4.7701296e-06
4.7840016e-06
4.7095888e-06
5.0166192e-06
4.9326864e-06
5.1665296e-06
5.2897936e-06
5.0268096e-06
4.8812e-06
4.9030288e-06
4.7457808e-06
4.7032592e-06
4.8355648e-06
5.1554464e-06
4.965184e-06
4.7770272e-06
4.7658288e-06
4.7594608e-06
4.8158032e-06
4.8864448e-06
5.1345744e-06
5.108496e-06
5.256792e-06
5.0146032e-06
5.1554336e-06
4.8950208e-06
4.8689808e-06
4.8110624e-06
5.1888752e-06
4.8705696e-06
4.8205824e-06
4.879056e-06
4.8673536e-06
4.8849072e-06
5.0565568e-06
5.13044e-06
5.2962256e-06
5.1734528e-06
5.2303248e-06
5.0401008e-06
4.8375936e-06
4.897152e-06
4.8190448e-06
5.1840576e-06
4.9576928e-06
4.9704928e-06
4.9938592e-06
5.1426336e-06
4.9220944e-06
4.8243024e-06
4.7844544e-06
4.8232944e-06
4.7175328e-06
4.807872e-06
4.7690704e-06
4.8763824e-06
4.99488e-06
4.9252976e-06
5.0044768e-06
4.9476432e-06
5.1336304e-06
5.2584832e-06
5.2196816e-06
5.1234912e-06
5.1702368e-06
5.2642704e-06
5.333904e-06
5.2169952e-06
5.3009536e-06
5.2961616e-06
5.1862016e-06
5.1336432e-06
4.9492576e-06
4.8159056e-06
4.9668112e-06
4.8738496e-06
4.9747936e-06
5.0661536e-06
4.973128e-06
4.7005472e-06
4.6234992e-06
4.8386784e-06
5.0235808e-06
4.7483392e-06
4.7079616e-06
4.7297264e-06
4.7297264e-06
4.8481856e-06
4.6941152e-06
4.7775568e-06
5.0023072e-06
4.740848e-06
4.7790944e-06
4.8636336e-06
5.0964304e-06
5.2075136e-06
4.9009232e-06
5.0730896e-06
4.9986384e-06
4.9715648e-06
4.8243664e-06
4.6229568e-06
4.6521616e-06
5.0060272e-06
4.8333568e-06
4.7408992e-06
4.5341808e-06
4.5804096e-06
4.7733072e-06
4.8540368e-06
4.7217312e-06
4.693056e-06
4.614432e-06
4.5501072e-06
4.469288e-06
4.2323568e-06
4.1845008e-06
4.4103232e-06
4.5203216e-06
4.670168e-06
4.8024864e-06
5.011904e-06
4.981072e-06
4.7026016e-06
4.6148976e-06
4.7286288e-06
4.686688e-06
4.8726624e-06
4.4305888e-06
4.2908304e-06
4.40296e-06
4.6378368e-06
4.5437904e-06
4.5948112e-06
4.537952e-06
4.756296e-06
4.4852656e-06
4.506488e-06
4.5755664e-06
4.735488e-06
4.63404e-06
4.5166016e-06
4.6122624e-06
4.9306704e-06
4.9747296e-06
4.8779328e-06
4.9719792e-06
4.6866496e-06
4.6037376e-06
4.9135312e-06
4.7982112e-06
4.6037376e-06
4.5240288e-06
4.610144e-06
4.7658544e-06
4.810456e-06
4.8858768e-06
5.0139712e-06
4.9061296e-06
4.9040112e-06
4.8189936e-06
4.7914032e-06
5.0273648e-06
4.7813152e-06
4.6043952e-06
4.6352144e-06
4.6925648e-06
4.7536352e-06
4.8540624e-06
4.5788336e-06
4.6531824e-06
4.90932e-06
4.8705696e-06
4.6628176e-06
4.5177632e-06
4.497032e-06
4.4407024e-06
4.6713552e-06
4.8615664e-06
4.842424e-06
4.8593968e-06
4.9662304e-06
4.942296e-06
5.0113744e-06
5.0363552e-06
4.7015936e-06
4.6112416e-06
4.7462464e-06
5.0012992e-06
5.1840448e-06
4.9810592e-06
4.7871536e-06
4.5734864e-06
4.5378624e-06
4.6807984e-06
4.6531312e-06
4.664872e-06
4.6664736e-06
4.7127408e-06
4.4996416e-06
4.7690448e-06
4.8216288e-06
5.0772624e-06
4.9173152e-06
4.9624848e-06
4.9045664e-06
5.0777536e-06
4.8736832e-06
4.8875168e-06
4.9762672e-06
4.9656112e-06
5.02464e-06
4.9800256e-06
5.182456e-06
5.075648e-06
5.0113744e-06
5.0241104e-06
5.0315504e-06
5.1500352e-06
5.2254688e-06
4.9598112e-06
4.869472e-06
4.8280352e-06
5.227664e-06
4.9412368e-06
4.92792e-06
5.1702112e-06
5.2127456e-06
5.2749136e-06
5.2265792e-06
5.237752e-06
5.0884352e-06
5.188824e-06
5.0256992e-06
5.0814864e-06
5.0575776e-06
5.137312e-06
4.9682848e-06
4.7403696e-06
4.9082736e-06
4.93328e-06
5.207424e-06
5.1793168e-06
4.606488e-06
5.0406176e-06
5.3084448e-06
5.5656416e-06
5.4683664e-06
5.4492368e-06
5.2786592e-06
5.571984e-06
5.269656e-06
4.952952e-06
4.9216288e-06
4.8121344e-06
5.046456e-06
4.8471776e-06
4.6798032e-06
4.5793504e-06
4.4974976e-06