/*--------------------------------*- C++ -*----------------------------------*\
| =========                 |                                                 |
| \\      /  F ield         | OpenFOAM: The Open Source CFD Toolbox           |
|  \\    /   O peration     | Version:  2.4.0-MNF                             |
|   \\  /    A nd           | Web:      www.OpenFOAM.org                      |
|    \\/     M anipulation  |                                                 |
\*---------------------------------------------------------------------------*/
FoamFile
{
    version     2.0;
    format      ascii;
    class       volScalarField;
    location    "0.001";
    object      rotationalT_mixture;
}
// * * * * * * * * * * * * * * * * * * * * * * * * * * * * * * * * * * * * * //

dimensions      [0 0 0 1 0 0 0];

internalField   nonuniform List<scalar> 
5120
(
286.1852959
294.5939616
300.3793662
287.1732861
283.7807231
307.4690229
318.3145302
311.2738626
303.5856842
299.7255787
309.7764935
311.4716022
322.5821043
305.0472789
320.7327566
308.0118787
299.0818746
303.8624112
283.4009604
286.9114262
298.4061013
299.8028898
295.2418812
291.3375301
280.1744378
295.0522889
310.9550605
315.7234466
332.9634915
324.2091006
315.8695641
302.7518038
293.5823119
294.8021341
285.332684
283.4871542
273.7189777
276.7197406
294.5317996
298.9597736
345.3817796
334.0040529
323.8398798
305.4298811
300.0043261
290.5987098
292.4510354
293.7811709
284.8428914
285.9637038
300.5781779
292.3848777
294.4358982
286.9352902
285.2290212
271.5346906
292.5622137
306.7795995
323.7986886
332.3093828
288.5215524
295.5627332
291.9272681
292.4713976
293.7306904
292.9567917
288.8902512
284.3307278
292.712471
307.7945004
306.0259004
310.543494
303.9448241
297.4525651
293.7730888
299.3092216
302.0315754
304.515138
293.897773
285.6472724
284.3466947
293.9170527
308.1992663
303.6602821
299.3681128
308.878831
318.9844804
308.0793551
308.4648775
313.7776058
305.7119722
294.0610381
295.9029357
296.7735272
297.4043306
297.9392899
302.4945597
314.2640508
302.8466793
291.4783061
309.0882768
312.570523
331.182121
347.6265792
340.1516264
325.2883685
331.1421628
328.0858893
322.9099842
318.2209441
316.6728228
296.2943241
289.6652798
296.2662242
303.7837393
298.1691027
304.9385678
296.0484399
307.4530581
313.7252846
307.5153829
310.9458699
300.3239941
299.2441351
305.9242414
316.2769324
313.8914073
308.8049129
313.4100916
330.0124048
337.0486617
340.6653611
332.4110902
323.7738171
313.3737999
302.6571313
295.9743862
302.5812939
298.129931
301.1273168
312.0614841
305.2746578
294.9872983
304.9930209
297.6819021
295.2839992
295.7525313
299.1378811
297.413138
289.7584901
290.0974711
301.1297589
293.2975721
294.8770723
285.9833871
288.0275059
291.7911872
299.9446326
306.9077844
306.3820142
286.6481444
302.5494029
300.0449395
292.4467165
288.9384654
287.0375962
313.9114963
328.5142549
323.9767442
308.1835915
322.9391251
317.7524812
303.3345735
285.6634243
292.4642539
295.4442266
282.1781714
302.696079
292.4455233
291.2060985
283.6913438
293.7545215
302.9149555
301.1853323
300.5212225
308.9202164
300.8659967
293.6782569
294.086436
311.7087673
294.8575647
288.454801
286.6720412
286.9677327
282.2303604
287.3596865
302.321212
298.1632825
306.9383257
295.3932036
281.9062665
286.3339147
291.910628
292.7403507
297.6931768
304.6195198
296.8009818
299.2535025
280.1561965
284.1974928
290.9701818
290.4577797
284.5238323
290.4387679
296.1975505
291.7363917
271.3968362
264.4647098
262.0215313
270.7852348
297.8037023
292.330433
283.6890143
276.6232568
283.2955918
296.0764735
293.3029494
289.0307174
285.4283685
286.125115
277.5838184
269.6124534
259.651073
258.2016728
271.0258937
270.6062351
293.5063602
287.2623428
297.6088342
302.3395115
292.3575522
296.4913129
288.0929712
304.1064499
304.6073613
303.2043339
291.8423604
288.7772917
286.0085176
288.537165
280.4535222
284.7661941
294.0563153
298.2132376
283.1491184
291.9248283
283.9834311
279.74148
290.1392461
299.7414252
297.6999214
309.3439574
313.817413
311.1020654
330.6621208
326.7945703
328.3107465
311.5316756
311.0756407
298.7445396
304.2951264
286.3889704
284.2847163
283.6678015
285.177846
292.1741787
285.9537505
294.4380075
291.2365888
292.8188403
274.7511501
266.535134
272.0371988
274.98173
292.7105287
299.4511389
295.9623006
302.7036818
317.5109236
315.6176887
314.9671178
321.2099161
297.3421515
314.1321339
309.1440138
303.6858801
303.4802175
298.2602464
294.9315548
282.269664
304.1526363
300.0641137
291.3886951
313.6292741
300.2701534
282.9753056
287.9019617
293.6710316
296.3862495
292.506357
304.0429628
310.4893931
322.2638913
320.8724945
307.9984442
310.685325
299.1364446
304.4381449
305.9209114
299.5369699
292.8807121
286.5339116
278.6258034
296.9110643
286.5837717
279.7254051
279.4387245
279.5864873
295.2474452
290.4398817
289.2758774
285.7068084
283.6755458
285.446559
281.4095295
296.0262468
304.8044075
302.9462104
304.7781943
296.7897513
289.9361213
293.551625
302.0587836
304.6292297
309.594794
311.4493309
304.8813266
295.0754526
289.8971886
281.3933683
296.8405878
308.2824844
311.1654904
316.3949347
313.4988273
310.4443397
298.5932844
285.9764403
285.9623825
286.5337724
292.122761
294.4428465
291.5835482
305.3786261
306.7750835
318.2452921
316.8207978
320.1099231
312.688309
316.5711847
304.2537206
310.3665493
299.5617141
296.2370134
298.0286733
301.9310248
301.1755456
306.7952255
301.8515853
296.8925103
314.0079634
317.0265588
320.0687843
303.9631231
299.8376624
303.3653945
326.820409
332.6672223
320.9855366
317.7017758
307.1858511
304.7258094
312.8721634
329.6417041
320.7176708
316.1712083
314.0848465
305.8048642
307.6874342
319.7523395
326.1038035
314.2115584
305.1563733
307.4156418
313.0355587
317.6065832
302.0408531
295.3258585
299.3704575
301.2036141
295.5489976
296.2491581
285.40073
279.25064
286.0923344
293.8780548
290.9865238
286.4292737
296.2612484
314.8299762
321.9285548
312.9298686
326.9653716
315.1810537
319.717351
329.8696655
341.5841082
310.4249431
292.4201191
287.4947872
286.3403561
284.7937126
289.617683
301.6177606
294.0310454
297.2265331
302.6824951
298.5445869
306.9593654
313.8422533
308.3552569
306.3175647
304.4599049
289.8429969
296.0188461
296.064985
297.2634641
290.7013054
295.3370732
287.9728118
288.813969
305.8729964
302.7159489
286.320846
297.0587532
298.1466428
309.712593
311.513439
302.5445902
313.5973642
286.0339741
293.5325616
299.894529
300.9147682
298.2079027
296.9677295
286.1008183
286.6300223
291.2049111
300.8772622
300.324482
289.2499503
291.1065318
312.070147
310.8645942
317.0272298
310.467391
302.3015094
284.2355239
285.9763902
315.7512042
305.2622448
312.5852462
311.7710187
316.2558222
327.2441486
327.8499908
320.7087024
333.9322631
340.3495208
335.532934
331.9720191
319.6296667
320.3267309
305.3919647
299.5773809
294.9693731
290.5713641
302.7658774
321.2739257
290.0187319
287.1482043
273.3532594
289.8787586
304.1247722
304.4750471
303.5162944
300.4914659
300.028517
303.0250088
305.598819
298.8393184
312.0403389
320.5295561
322.2870582
302.0049768
285.8881708
279.4514429
275.6802191
286.990354
292.1872936
291.56001
301.9030196
297.2374522
288.3303469
285.3883924
302.1527799
293.5106778
301.9250302
293.8172772
296.796107
294.9540379
309.0437582
319.3692124
305.4341175
307.8988774
314.1950386
313.6250373
302.3485374
293.1894409
292.8363761
288.6729102
290.982568
284.5570267
284.1416457
286.4047503
292.3402464
304.0104157
305.2173179
310.4098849
309.2160191
301.4951269
312.585757
300.2373963
297.0205748
297.4059232
302.3134052
312.5334346
300.6267425
302.1466967
289.5737292
284.6854045
283.5774231
277.2197595
280.8739179
278.7856416
295.669116
292.3761998
303.2169169
301.2565897
298.6863048
307.0811709
300.5107566
287.1101504
283.8666247
278.5382423
276.4208571
284.6987573
282.21624
288.3884899
281.7630813
300.1760932
295.1469654
292.7663675
297.3586019
297.6204632
302.1069813
307.146651
297.5965083
297.2935217
304.0355553
310.7365641
295.7825505
292.9660627
285.2091639
286.9287438
289.015933
288.2893734
289.4004124
281.7814576
288.3039429
273.2884098
273.5494181
284.3970719
297.0505518
303.1660691
307.1281354
306.9215143
297.3720429
299.3923876
289.9765384
283.1895427
290.400798
281.9182217
297.0795949
299.6495206
302.6704162
295.9189116
290.3869253
288.1708911
293.3057852
292.9455734
284.8502522
276.2867726
282.3899316
276.2763512
280.297794
295.1448544
302.208526
308.3366321
311.20941
310.3623505
306.3827586
300.5129701
308.3046153
300.2264797
294.2697495
293.3326056
300.3701935
291.45398
316.6177795
301.5300297
312.5775149
320.4019034
303.3611019
295.4894624
276.4376967
267.6232014
277.0099205
291.6545006
294.1435243
314.3959876
302.3596797
294.627898
311.5422431
302.1911402
314.1406558
315.8783684
318.4446541
318.9805283
337.8815212
322.5121993
313.8085892
288.3499536
285.509036
298.7215913
320.7513466
315.2734735
306.8403192
303.4743026
307.2432811
310.087982
315.1138998
323.1153039
316.2239266
310.1501259
318.0961568
328.2935142
335.6594533
339.5920875
322.5141874
321.0799205
316.9092818
318.7190169
316.2947217
300.9261959
310.9085798
319.3493851
311.0980201
301.7571761
300.4801567
297.0728796
291.6693657
279.4655885
278.7064336
290.3671328
300.235929
304.1908834
299.0843223
329.7295986
309.7326255
320.8663413
337.853227
323.1739134
312.8351166
304.179408
309.0478175
313.076018
311.5354121
324.425785
331.3716005
324.3301041
341.0632874
330.2668611
321.4134506
318.7893279
308.7592706
304.6492302
302.9343168
299.7519362
318.3601809
314.9491082
313.9532307
314.9796278
296.0079851
300.8705895
311.1598885
306.2914032
298.7366244
290.6988578
288.8808668
276.2493197
283.7290085
301.7854385
310.3421847
311.2931058
325.6062874
330.2444982
314.1968602
326.4888562
297.388459
303.1293942
294.575992
292.2414562
296.1356374
289.322923
289.1359376
289.1207868
291.9519719
284.63318
288.8000103
304.207385
305.8497394
307.2964404
306.5421028
319.9870103
324.0578557
329.9820435
317.3678548
292.671556
292.4458945
282.9260917
282.9060378
289.1812766
278.0789225
273.7160259
270.2396079
277.181958
269.7421224
287.4279589
281.7478243
289.7991742
282.6958139
278.9007927
277.219504
277.1202622
273.1954422
273.8285735
274.3985239
285.9741796
282.2309493
280.3723726
274.7956885
270.7406143
271.6072821
269.9149743
283.9806766
296.8390095
290.1936948
296.6145156
297.1840125
297.3688544
299.0084591
279.2819748
286.6915482
285.5889015
291.2438661
300.1707061
287.2432488
289.5956015
304.3015146
304.9705284
312.2424812
305.5857719
295.5619909
288.619584
305.5815885
301.9309776
308.9332819
310.2762937
308.5291679
312.7080845
304.7276277
313.9964086
306.9212626
308.39713
307.9268428
310.7248392
308.5312496
313.576975
323.4439774
320.3363288
318.3634341
314.4656268
310.7862294
305.1743614
308.5075041
306.0563425
297.3337571
311.5315456
311.194134
308.3537975
293.4955758
301.297907
315.9985477
307.9074232
312.9984377
319.1387732
322.2249517
328.2881793
309.4873939
308.6654375
310.0393177
306.1414611
302.0707442
300.3477683
305.5439195
316.5969908
307.3527092
299.8853745
289.2601002
295.7288821
291.9810837
297.9783755
311.8307363
323.4714875
318.9028731
317.6226425
307.9753793
301.0564219
293.7306423
297.9778765
295.9441042
308.9692685
317.8963738
305.9023257
306.6228269
316.2629243
320.2917178
306.2573517
302.0365617
307.9511816
310.5373131
314.9971316
311.7836886
308.0124764
295.9770057
284.1086086
295.5128303
287.9984797
302.8623994
293.4600008
301.2476083
306.3184544
297.0333173
288.2332147
275.2187923
274.1894247
254.6636975
264.9557984
279.1014193
282.9279878
287.4552004
285.8423438
288.2742653
275.5726422
271.6206921
283.7384996
283.0461301
299.1958912
292.2597416
289.3541447
293.9813502
287.8038103
275.2672972
278.6822086
282.8531843
300.3260695
303.0387022
288.8850417
288.1243631
284.7434645
285.9758846
282.4126892
286.5611811
295.909554
299.1256539
301.8142766
290.1716168
284.5281352
303.6103643
302.9176724
305.6159017
285.8485646
286.839107
285.0652414
297.7520338
294.2070551
306.1076278
311.5473706
296.0549531
296.4831801
311.6536164
307.9025476
312.1399732
302.5729724
302.19634
304.1366712
317.3765925
312.1327336
306.1141559
305.0835499
310.3357158
312.7953615
306.3721252
307.0675273
309.1870357
297.2872328
296.6346019
297.0739368
296.3483926
299.4705136
294.7848383
302.526042
300.3372526
293.6407161
295.851835
287.7088695
294.8163371
297.9325882
273.0871982
281.4474128
291.4270155
297.568266
301.5418728
315.8244971
305.5088946
309.6300748
296.9760505
292.9695946
291.6703209
292.1152466
291.3112796
290.7029105
285.7627979
286.23265
285.9739868
286.6101249
284.7065959
279.9138951
293.8962086
297.1049971
301.1209052
304.9744362
315.1355641
302.1208324
311.5165924
296.8865612
289.5953283
290.2929694
287.8994494
295.4836978
296.7958079
300.7639491
310.0916755
305.0385787
298.309389
311.8967109
308.448566
299.78414
317.7863084
316.6329876
326.8533095
313.1375865
307.6696337
309.5249981
303.7957845
307.5469204
311.131853
321.3542683
321.3403569
314.4401102
313.9772952
309.8217214
307.0679996
311.7171033
309.6478087
305.1415795
304.6031052
315.0671242
278.9415285
287.9437965
284.5969023
285.9783004
297.7338477
298.4193603
313.7769142
303.1031633
297.2502137
301.239507
306.6893923
318.8398176
319.220043
316.872217
309.9690814
296.7242514
306.8700698
303.1254329
287.3229723
283.3938735
309.9038335
277.1488031
275.0303566
277.9096579
277.4917118
286.7512745
288.990993
307.0814652
318.4625522
303.4398253
302.0253631
306.8668278
303.0178013
301.7868793
311.9225715
307.0180355
302.6916053
297.9693931
313.6297663
313.3640131
272.5924388
301.8751045
295.6277957
289.6464906
306.7334119
306.6907196
304.3020018
288.1773324
283.8071659
276.0976406
281.4302487
284.156634
286.0097444
292.4839454
291.7969884
300.5731296
309.9839222
307.9083487
294.1526142
274.7285336
312.9636127
313.3713022
310.6245295
305.8831727
290.1923737
279.474266
278.9569887
291.3752045
308.8613216
300.0678605
305.0588745
311.2169598
322.9956866
316.9232623
312.9799747
313.1599344
310.1012603
292.872495
304.1738135
311.7011992
298.7506554
291.9049773
295.5251165
302.3297415
308.0960847
314.120679
315.9109556
303.6693753
294.9807273
301.1393308
310.4946079
306.6372187
297.9392704
306.6588364
300.0831937
304.4825588
295.0556473
296.4234801
311.6447358
304.6786449
318.9200203
309.6594351
309.7453279
306.2771588
299.0377699
307.6109318
303.2628532
312.6717494
310.5168811
311.2931381
314.5191354
315.7371522
322.958234
313.5475012
319.3512627
316.8103524
302.1462767
292.0238404
315.5660093
330.4580339
324.7964358
326.2702647
316.5637616
317.9829228
311.4244383
309.3157541
313.5910418
320.6010517
314.1931711
307.3741094
306.4899456
313.3064631
327.1790314
313.4120126
303.9657732
300.8023837
306.0144437
316.8173656
318.9678097
310.2152822
312.9217285
310.1560574
323.1764108
316.4819701
299.9365081
299.5690529
281.4396405
280.6954383
285.2249724
296.5916932
290.8666953
310.6739976
304.1587062
317.0360057
317.5350777
327.162865
323.8005979
324.7604733
318.2385618
309.5169323
294.7970163
296.6262865
302.1101142
295.469764
304.5091418
289.2805134
285.2460392
296.0819402
284.2981175
284.369584
296.169415
298.0350653
301.096022
300.57638
295.8621493
301.8237024
293.5536339
306.0050076
302.3709249
289.0681941
320.6218279
318.6000903
336.6291738
331.7039025
320.0386664
308.7916725
299.5136947
285.9308294
300.6302296
313.7969252
306.5149485
301.2583765
315.8564417
315.6629589
313.9962039
308.824036
316.5860931
307.4506361
305.5836076
318.9104033
313.1421586
289.9117674
291.0001957
289.5683934
301.0876076
308.9783543
286.3172951
304.9926467
306.8303478
295.7645795
300.20362
293.864308
304.0617601
297.4141746
306.461035
302.655839
297.9847117
310.096808
301.8560152
307.492344
313.1370905
317.0995892
310.0356432
320.9899412
304.4784329
289.6322405
288.2307874
287.8585538
276.3820186
281.6302267
274.2264073
285.7357974
276.0887044
291.2870532
297.2045699
313.6166725
319.1579146
328.811358
320.8437566
310.9509122
303.9759227
294.834555
276.9946537
272.3513047
272.836241
276.2162786
288.7835365
288.9226901
308.2978082
308.8948028
309.1905389
302.5039274
292.3509338
299.6621645
302.443798
305.7493382
306.2017416
309.1131367
316.0550486
319.6579728
287.7060982
294.9941485
297.054893
290.0745579
293.0809076
295.0004071
303.1782914
308.6349834
311.719413
321.0271065
316.6427168
318.4236341
308.0294468
302.581008
305.2059639
302.6197578
316.5077843
303.7902383
291.9991193
292.0682591
291.7286529
284.3761248
288.139753
289.1552291
308.1358797
300.9531051
296.1948822
304.7232284
309.7926025
301.8639258
297.2407274
284.44186
300.6363058
307.0657099
302.897848
296.1861603
293.665749
292.0020884
297.3486261
295.0308313
316.061896
315.5543754
303.8815006
299.0804474
301.2263828
292.8505072
294.3421655
295.1189568
297.8331982
293.4451525
292.8215052
291.6841692
303.5367697
302.9150777
305.7446759
306.990509
315.3229757
301.3352274
307.7544942
307.0710379
313.906587
310.6975854
309.0187901
313.1095634
321.2647338
326.8884431
306.7138774
304.0404987
292.9361263
295.5879872
309.7441199
297.7218861
305.7303371
317.4336461
332.909536
325.3725472
314.1425013
317.4057876
299.2796427
300.147151
282.4770743
302.0223074
302.1112583
297.7528937
292.0923951
280.6892756
281.2499615
285.1739196
293.6508803
304.7422254
298.2087413
290.812763
280.8066459
279.4655559
275.7254667
277.4650053
288.718254
290.9788026
284.8658125
282.4438228
309.8430331
297.3720687
296.7313468
300.4880849
300.0052047
294.4607589
283.7596289
293.3006622
318.8158006
309.4946582
300.6247263
295.3100713
296.839417
301.5324662
303.3152059
306.6503913
301.7289349
301.083933
297.61839
312.7346663
302.7358675
299.5020282
299.8783545
302.086356
291.8020914
305.6959937
308.8848684
302.626665
303.358732
311.5773892
316.0584221
308.6088664
298.2133111
296.3629347
295.3548292
281.3778104
286.9073582
289.4855032
292.007165
307.8357084
283.3995179
297.6509451
302.2976702
297.9790966
314.0350398
294.626062
279.1839616
295.1859255
300.8918866
300.3916263
299.624195
299.3024875
313.2927546
309.983313
298.826506
294.9206142
304.5361363
307.6761672
284.7459397
286.3171993
302.6568379
304.2104371
308.6566018
308.75174
321.8511977
314.2439786
313.2206584
308.3260113
302.4369728
308.7209362
308.9112501
296.3389256
284.9490429
297.3844187
290.578642
286.5493511
282.7666787
280.4187545
290.7283353
282.9892154
309.3239052
306.4841405
306.8280201
298.2350194
292.962709
293.6617481
280.8828063
286.1210394
298.1964956
306.7217779
314.8608774
308.5427
287.5587325
288.0026157
301.5178613
311.5162346
304.7650114
305.1036295
306.6953123
316.7381462
310.3936613
310.045465
295.062834
300.6950411
296.3636835
304.2773518
309.2438413
297.1810744
291.1669428
289.769157
295.3547486
299.8619943
296.8101427
292.9694922
309.931586
302.8099639
313.530437
300.2383987
296.4442776
298.093603
304.465702
307.3756628
318.7931375
317.4581493
305.499449
306.4879487
308.8820712
307.2358283
297.8938543
293.5808652
303.7558953
290.712793
284.5744007
280.3888792
284.3736967
275.2212689
284.5187687
297.7279143
301.0244864
303.8692799
274.1790938
296.3143124
298.1027148
294.6312318
307.0522061
321.1073887
327.1857914
312.6260967
312.1014663
304.1172185
293.3493821
292.6796775
299.8211749
290.5903743
294.9419785
292.6492654
281.3303384
279.8573628
277.4242475
272.7829429
295.2417383
300.2027614
305.2285074
308.4782128
304.9953572
291.8300589
292.2378273
296.9720764
303.2965541
298.2502375
302.3572446
306.5682466
316.2830845
320.754657
312.5631906
310.2345048
297.6532493
293.9676245
287.8375332
294.0246775
282.9132638
290.5440846
295.6965812
290.1937291
293.7818537
292.9506727
293.0798786
285.3696451
290.9003895
296.8275431
305.0153765
302.7387571
289.6889061
287.4385705
293.8823119
295.2599625
286.737509
291.3771151
297.2687815
305.7697081
313.2943602
291.5246933
284.7469636
298.7513702
296.0979525
296.6498757
310.405374
308.7111523
317.7237051
318.5528685
313.8078001
302.5107991
313.5354942
300.0325499
300.7159084
294.6861332
297.1396376
297.5388715
302.5751505
299.58375
299.5829621
299.0758991
297.6727505
305.9418882
298.028001
293.8312546
295.5952857
295.5652134
305.1019283
301.0325281
296.234673
289.434252
302.8946249
290.5149348
296.006973
309.5125071
297.9822088
293.3469448
288.0309007
295.1645698
281.2770064
296.8050588
300.0591838
293.8270029
283.4852023
298.9847699
295.4046809
299.8570398
309.9409702
310.9220396
312.7463992
316.765383
297.0187425
300.963999
284.4544628
282.6259242
269.7007693
278.4324301
272.1991882
284.1743093
284.9578572
293.6817747
294.8458879
299.6863484
305.5119599
302.8210248
309.2320854
303.5555733
313.3662138
305.5756037
300.7885824
308.8485011
308.335932
305.754668
313.9563555
301.0802445
297.3598626
306.8642863
309.3641019
304.0281308
323.7515448
334.8251319
341.6652708
344.1081068
340.246021
323.8281757
323.7242518
326.3749595
311.1883991
287.7251722
299.1624499
316.6851708
316.5602467
308.2814421
293.7188316
306.6879789
302.4190827
297.8464269
312.5534938
324.4330537
293.7150583
288.3807783
279.373476
289.2372265
284.7045267
289.0240575
290.8812713
293.2416039
308.8879825
310.5631076
319.3406363
319.1369787
315.6488869
303.442632
293.6085145
294.4967323
300.366985
312.7947784
296.8793058
287.3983273
292.2709201
313.6981687
321.6297637
309.2466431
305.6574709
297.0958339
307.6147009
300.5852176
284.1947742
299.7645151
305.5843694
310.9733346
321.18557
322.1957824
324.5338658
311.0363318
303.8460501
295.8875473
293.9846764
281.8411626
289.7684404
292.8047881
291.5344899
303.8423454
297.4753032
296.4312755
307.5059064
306.9547514
317.1186343
308.5446744
302.2940712
301.4162828
302.4147641
298.3937441
305.5376628
311.3551022
306.580032
300.4910887
288.9446832
287.4748546
322.6417743
317.3602195
305.0674383
287.2383255
282.1826645
286.5853589
282.8234337
294.7665105
283.5870818
284.6858078
294.767183
300.3353321
310.4858894
310.8398296
310.1690328
319.581883
323.459631
327.4248769
330.0723283
332.8588167
320.2772503
317.4746566
327.9097077
329.0677694
331.7604158
326.6433506
324.1625655
324.3449884
319.4548214
314.4446776
298.7941563
303.5078364
290.5329913
293.2521685
304.9337024
302.4892475
304.0753069
307.4956726
315.3195666
314.8670139
301.0688372
311.9894718
296.1614187
294.8158976
300.9917176
300.7339849
303.4306294
304.1461506
312.3089412
326.8202868
319.0765473
319.4143044
318.2555192
307.228845
295.1459017
291.7028214
295.4594955
296.0566096
289.1221338
304.0606371
288.1756108
276.8842074
288.2652432
283.4441671
287.6316948
307.6568066
311.6011734
307.1068069
298.2283268
288.9799615
293.2632353
299.1276036
303.5504512
305.250879
317.1449245
312.382143
315.3350207
314.8295987
305.7321024
284.5132051
306.122423
302.2030169
310.3049522
296.9998418
305.8204554
293.8773963
292.4088515
292.5098587
305.6715491
288.6008931
306.2398092
311.8976457
323.1474069
327.6884268
310.4480534
298.5827781
298.4352822
292.8094664
290.3995887
302.5423931
309.2139786
299.6850042
290.5464425
292.8304341
290.5791719
300.5789512
292.5088588
289.9714065
282.6721855
292.0881196
290.2009478
284.9676805
284.5659978
281.379055
296.1682751
311.8259949
320.0085827
322.7060732
322.050496
319.6336353
295.7523464
295.5728518
285.8688296
292.3112724
280.0472465
289.998462
293.2431169
287.4144194
283.9331998
284.6981684
286.5117688
311.0206716
315.654964
309.5389283
310.4723459
300.2678031
304.6427361
300.107073
303.6811799
309.4453344
305.4808614
302.6062882
294.6758072
296.0321691
308.9516686
295.6835997
292.0405946
299.0727195
295.8082868
301.7733663
309.2344265
293.3974523
301.8241571
304.7544769
307.2991071
301.8701483
299.7836342
301.299362
299.4053473
302.5983409
302.8980362
309.6570501
312.1169655
304.9864132
305.854874
319.7273952
322.4677668
300.4414159
278.2595955
290.4809784
290.2439746
299.8781777
302.1576645
299.200635
290.8186453
279.5325967
278.9210516
297.6136995
290.652697
291.9581545
296.6860298
292.1521696
284.8418573
281.1011744
286.045078
288.6149136
297.6812961
289.3200603
288.4167188
302.9074206
310.033515
324.0766746
340.4800523
331.8298934
324.5390719
310.9696791
314.9223216
288.9706008
294.1369156
297.0759196
314.876137
307.374565
304.366427
307.8239599
307.4163571
286.7922069
277.2016139
284.5705913
282.9599257
284.3396014
285.9479277
290.4922375
306.0789077
307.4581331
304.1233743
310.0405266
302.1346862
308.4137962
309.0277116
310.1227024
308.0633988
320.5366471
318.5407164
312.0557922
316.8182156
324.0885527
328.0561993
330.4591063
306.2220599
315.1875167
315.799093
314.8424137
303.2894569
310.0533575
312.398703
334.4243544
341.19726
324.4943652
326.7756215
302.9240243
315.2465217
319.3241595
309.208291
311.3708892
292.3926194
300.0672537
296.4966315
298.8473256
300.9307296
297.1723516
299.7085797
294.9181046
291.0670475
297.5252238
300.8255365
300.4621598
307.4876754
312.6613753
307.6462175
311.3940042
313.8887427
305.4306844
326.3247318
330.3327672
331.6054407
329.4210669
317.0857916
309.7739056
308.9348249
304.3631748
307.3871543
311.8998749
308.8199166
328.7300804
328.9748222
304.1198551
320.6185761
301.6253175
310.7974312
307.5178758
312.8265997
304.1632107
294.0745103
303.6559682
313.2923927
304.6663124
300.1508715
301.1100322
289.7946879
297.7278342
303.4037388
315.1759833
307.0395541
303.9031708
306.9596367
323.9163881
300.6449085
291.207023
302.6830167
311.158439
312.8697836
319.9453893
312.2097898
308.0577096
310.6361758
315.9428369
309.6884711
308.5505112
315.0116314
332.9895009
333.6760216
326.4203438
318.3582841
303.116806
302.081871
306.2307425
298.7655192
309.3154135
302.1048234
315.2994171
326.1750352
311.2695604
307.0759469
316.3412759
312.4035234
308.016411
293.8408089
302.319407
307.8625041
301.6212596
301.9619293
306.2469688
299.2834841
303.1750247
298.430336
308.3626992
314.8329147
316.6880413
328.7319171
324.7676928
308.8759273
306.0123333
305.6249508
305.5228613
296.3791274
304.5108711
301.8697276
299.2843017
297.4682555
300.5216858
299.1466689
295.9998879
302.9805463
315.6254419
311.4112609
311.9125994
307.0176233
310.012406
306.2247472
308.7036836
294.7796972
295.2628419
283.8076638
289.9412606
291.935071
279.6016315
282.6917285
281.6002904
294.0090187
305.3261018
304.9257842
311.3778443
299.1834913
291.3831193
293.6710984
293.4131861
296.4105595
282.0884985
287.795495
286.4639377
294.3456972
308.3550911
312.5665854
306.5772435
300.6316795
311.7954695
313.896705
309.619376
309.9246788
307.1767285
307.1626826
304.9649994
316.8781992
306.8865789
300.2266618
307.9392377
304.2066517
312.3185263
311.0200876
301.5795332
320.5990685
329.7026271
327.0942866
330.8316738
327.0518417
307.2448675
315.0084678
301.3997814
306.1553809
331.2194602
319.6856674
314.0860865
311.7776124
301.9682372
296.9742573
299.1100133
296.6577601
299.930962
304.1695915
311.3902275
315.2083542
305.7736059
305.1765327
306.9691859
306.7710682
308.2371819
315.2807917
306.4002771
304.284743
286.933484
282.1311217
281.1230638
276.8997805
276.8424785
270.3919419
273.3253756
278.7080327
289.0493757
292.6689802
306.6026269
308.7316787
298.6440942
311.2836832
315.9802041
316.645746
318.2000778
310.5434346
311.4483624
292.5119415
281.1401377
284.6980209
288.7266457
290.6028384
280.6910178
275.6294344
287.4796748
287.5827782
304.632201
312.9915257
307.9024574
312.8206603
318.4887682
328.0162842
322.490064
309.8600739
306.6244624
313.3667721
306.9861735
306.5686897
312.4145478
303.4015595
303.9720874
300.12425
306.9207318
302.1997147
293.1145294
297.3496055
299.5475932
299.5192652
302.0772193
280.0815482
284.8850576
274.2000988
286.5067931
277.5862244
311.0625781
304.7690549
316.8065455
328.619033
312.7056093
316.7673534
311.4608537
291.7361047
288.6548079
297.1802594
300.6102289
292.1679057
287.4829055
287.074497
279.100221
302.1137352
289.3598686
289.2966446
291.3738225
295.3737074
293.657562
300.0711464
292.2380435
286.5160501
294.2664898
294.5878218
301.8595814
288.7386155
295.5191869
299.6246407
302.0478799
299.3512641
302.6611902
300.2274105
291.6646405
302.2671318
295.6378845
295.9421995
289.418074
304.2698992
300.8424841
301.9991517
293.4901673
306.3893024
305.4557995
293.0072813
304.5763329
289.9406682
287.6863139
294.1778736
285.4002849
301.236919
308.6792292
293.1826958
291.7200657
317.046436
306.6791733
299.0632152
300.0222
295.5252458
295.3380677
288.4624049
306.116699
301.1447532
312.0916559
332.5502433
322.2205212
318.3925483
306.0832
306.7871543
307.3599338
320.1613495
315.3203095
316.8985604
319.8006014
318.7443214
324.4100575
327.5031891
320.3079895
310.0995783
304.3581012
317.9703084
324.9632589
321.3612617
317.5120651
321.7326891
317.6178186
313.3854293
296.4422916
297.1640038
296.6824444
303.2065481
310.5512754
314.2447723
328.6582676
305.4745899
305.0347501
291.8456019
306.802054
298.257848
304.2492002
308.1230178
309.2140616
306.5982336
290.5333134
283.2135744
285.9301932
293.6057785
311.1004673
316.4075887
322.7371381
331.1761543
332.9724216
324.6649695
306.6858023
292.801957
294.5357277
311.6081891
315.4289725
312.9959608
308.3239391
302.1931708
291.5710612
296.4876152
296.2877419
288.5481725
301.5104782
309.7254832
304.595104
284.9997106
292.9217649
293.7755487
299.8051319
296.7797511
293.6661808
299.0627551
310.6887928
315.4728843
298.7954354
306.8473342
299.5743702
322.4666128
318.8930958
312.9254099
302.40538
297.0401426
284.0970404
292.248392
283.3338073
291.7847497
291.8334659
306.9434668
311.6466058
317.1477513
303.9198307
280.3342175
290.112649
295.9452859
292.2349553
284.1363689
293.3560725
290.86636
295.1738705
289.3222773
295.0157007
303.4194517
315.3005015
312.7178048
316.9993775
313.9165258
308.3080272
312.3177972
309.8340572
291.0124417
294.0365268
298.9050135
295.4788641
303.4923693
308.5751768
307.8150968
315.4953599
314.1156295
312.6996441
305.2477088
287.9226004
284.7820286
293.0761366
302.0434916
292.0256005
288.6240864
311.0931143
312.8812158
300.5567884
309.6214328
305.2799572
285.5575173
286.9612952
283.0395482
289.1158751
280.8817073
288.2893137
280.0404384
275.2556174
275.753575
282.4487629
285.143372
285.6687162
282.3534924
280.6477006
287.1739425
283.2570525
289.1486063
280.1564921
290.290463
286.0018669
305.3307549
318.4560895
313.6860757
306.6140687
310.3823435
305.1840713
302.1601185
298.6937218
286.3266493