/*--------------------------------*- C++ -*----------------------------------*\
| =========                 |                                                 |
| \\      /  F ield         | OpenFOAM: The Open Source CFD Toolbox           |
|  \\    /   O peration     | Version:  2.4.0-MNF                             |
|   \\  /    A nd           | Web:      www.OpenFOAM.org                      |
|    \\/     M anipulation  |                                                 |
\*---------------------------------------------------------------------------*/
FoamFile
{
    version     2.0;
    format      ascii;
    class       volScalarField;
    location    "0.001";
    object      rotationalT_O2;
}
// * * * * * * * * * * * * * * * * * * * * * * * * * * * * * * * * * * * * * //

dimensions      [0 0 0 1 0 0 0];

internalField   nonuniform List<scalar> 
5120
(
273.0021658
270.9365567
268.9734748
262.0167803
266.1770067
287.6693251
285.6478443
294.0278035
293.0581507
283.747877
282.6839488
294.0499256
290.20254
280.1595011
318.1823117
310.810971
300.4664332
308.0493678
280.0750095
272.1097287
217.3545649
214.4971812
235.8601085
236.017722
257.5393558
267.8858863
283.897369
307.5899398
343.2256957
309.4949124
316.1810233
313.7108924
318.5712133
324.3695274
280.4860145
264.2619982
245.06698
233.4433426
246.9233554
216.6867731
325.3372604
316.0470873
316.3115561
304.9722658
283.9430794
294.6541212
271.7847441
271.214848
283.0425098
286.2402072
296.0220998
272.7580976
261.0159165
270.875122
294.5690433
269.1209561
307.4211678
329.8576409
326.749126
307.990001
315.6002492
307.2803909
292.8449198
307.3561248
322.5429051
319.6097767
297.4506003
309.872015
314.9833447
323.0339658
310.5308831
330.25655
320.5949675
300.8911257
286.1590758
292.2465781
300.9176813
303.1720546
275.5732272
289.7358873
265.4120268
277.4501873
307.061098
293.3693545
291.2851151
301.3187852
339.2016578
336.1269871
331.589755
329.6747981
365.8161175
332.1368518
326.47756
312.2451376
308.8435428
319.9204057
333.4937912
347.8317965
343.245795
302.5181334
352.9138984
350.3156342
340.4443363
373.1958726
363.0401379
343.2297873
322.5907329
318.5698533
315.7445085
305.2317904
277.9126374
286.9638759
289.5312008
300.899935
297.1758418
289.460072
289.1512757
309.1741593
337.8767577
362.5525345
303.9820782
313.2705514
321.2544248
328.4008371
326.6282723
325.1328282
324.949638
330.6150413
328.8373363
389.6238674
376.5934273
376.9134302
365.3117488
368.6367471
341.8778366
358.0403893
357.8371509
341.9878567
301.7150426
316.3733045
297.0541047
314.495183
305.7138264
294.1686211
298.5359206
263.6183849
297.3270928
303.1706474
285.8352593
290.3170582
280.5630686
307.8624355
279.5082532
289.7400329
293.170168
297.8466951
296.6401947
302.6842201
294.4229537
280.9341227
229.0764294
252.9380645
265.2780056
291.7534211
299.2083152
290.7204833
329.9444104
341.124483
324.1824985
324.7820037
351.1490472
311.8576315
296.9248974
270.7862157
246.9715125
239.6073945
236.108359
262.5707654
248.5955455
236.0795115
266.162434
303.414364
324.3724707
300.2052665
300.1410598
308.6569626
293.9703714
287.7762759
293.8508702
306.2556738
258.0872219
262.1712655
280.4266568
272.059682
285.4644267
303.4424158
307.5496156
306.0328734
289.6581475
274.9380785
237.7888126
235.7458389
244.8799358
257.6861013
249.3699332
300.175504
250.5445667
240.3627845
246.8870259
268.0138447
302.7287892
299.2327408
293.975822
304.951894
313.8538041
322.2882959
308.5268557
255.7666151
242.0364867
243.5355603
300.8960923
303.3254971
290.5483473
293.061587
280.8425571
268.9516435
280.6867062
263.4286206
251.155722
246.4068799
241.1900311
220.3713156
201.9545888
210.0790288
238.283982
254.3002205
273.2536624
260.4600159
280.4321067
280.0113364
300.1991875
303.0714691
295.3976404
280.6165643
286.3578036
311.0921906
308.0053564
298.5183419
292.0569392
313.4049434
291.4889565
305.101378
320.2477416
325.2114299
291.9073958
300.3874413
283.4781748
263.6317812
287.074677
300.4676363
340.9800005
336.8041985
331.7120116
315.139793
369.2133223
319.6910367
297.5131703
309.0468881
306.4481194
293.9981313
296.0856003
281.7777808
291.6368097
306.3763695
306.5907919
338.3141106
329.1222083
341.8876951
321.8615079
317.9253485
245.403931
280.927654
312.7145934
306.5174485
348.5473073
359.3516233
347.1837713
347.6674146
355.4314266
352.5398051
315.5105535
317.5854256
303.9669245
348.5467815
340.640659
315.1437878
305.0315052
284.3964399
284.7761991
254.3582606
319.9895619
305.5384531
305.3447889
333.4718209
319.4581829
304.3351862
303.8944308
297.2439397
301.602666
314.8261897
340.7264596
376.7984433
368.0602699
353.1424531
354.0637693
358.2133329
333.4636922
331.9666343
302.6331077
298.0332262
301.0019567
287.491175
293.8895687
290.3583056
268.1043386
253.6868789
263.6728818
260.5175416
259.5507225
272.9932087
281.4175893
274.0140511
257.6562429
250.1296878
258.3304612
255.1548448
302.5919702
317.4729848
328.1880913
298.8215955
269.2762534
267.8033602
262.2972369
279.4453399
303.5708174
310.2467893
312.6011391
306.5009854
278.3995182
272.7207855
273.1791168
270.1006226
266.419474
283.8655934
290.4107618
288.4135097
255.8727608
218.138669
226.2473518
239.4633328
280.1614894
304.9463053
333.0082908
368.4365241
385.8222873
385.4479317
357.1713783
373.2283575
375.9048477
366.922521
362.5035301
349.7181369
335.5398113
297.9711086
291.8702164
281.7810495
256.3642622
267.0285907
279.923173
275.9216977
304.1393829
346.1657971
337.4109645
321.96168
313.0236119
285.7592642
318.0244349
311.883059
315.9562231
338.5943533
327.242704
315.8320762
327.5905655
354.872062
333.3823854
350.6408289
327.919536
323.5166155
318.6279115
318.8835063
354.5651452
321.3783774
324.0422071
289.1834965
260.2727681
282.6646257
295.1223243
299.0848279
318.5355325
327.6679304
303.7598635
301.6671623
284.1035943
279.9445264
269.4682921
269.3906466
273.1334637
275.7058589
313.6964482
318.539558
318.505467
303.2780281
313.016459
310.169042
328.158481
332.8752895
341.0795905
328.6002945
312.1091104
303.0159365
306.7550091
284.4208041
309.4322052
318.5787316
303.6713196
320.8479752
350.1959149
318.7270985
300.7231057
306.9967631
292.5213873
308.0368149
327.6187695
342.4184408
338.7447756
324.1584876
321.0287762
292.5736052
293.5806421
297.2490308
292.6966792
338.2590076
336.0817826
299.7797388
298.6898647
284.5225326
285.3658094
295.9510839
296.2270107
303.2633607
286.4634248
269.1306002
253.3958412
269.774182
297.1890037
271.785909
290.071012
336.8860898
337.0834194
322.2816627
331.7896418
315.5124274
312.5640566
348.3995883
355.995274
369.8325796
348.6536125
298.3647161
283.7231385
290.9850559
353.3258391
310.9983282
320.4132262
322.5576603
320.5227718
350.457978
353.395018
304.0712491
330.808944
347.0878493
335.0792855
331.39217
321.6231425
328.6222969
306.493609
295.282454
312.6801017
297.5132718
308.9445104
348.4178192
357.3530023
362.7851605
319.1424288
338.3604096
313.4729643
312.5883165
292.8264517
307.6978173
299.7210744
314.2377813
329.9062213
327.3859805
359.0641361
374.9425318
350.6335829
311.5295383
307.8966403
312.6307742
335.077227
344.494238
303.1294478
300.3767005
294.6258604
277.5620861
284.2137956
277.6336442
299.7493029
327.8128103
329.3431901
304.2975834
316.9884768
314.3558824
315.3605125
343.4328603
334.3579707
344.2975704
356.8635481
349.0631477
342.9528029
308.499209
248.7397134
241.2112573
255.8741017
265.0768925
253.0407253
261.0767625
265.1496012
268.4076578
286.955002
311.1315074
307.2910428
328.6167794
332.8624818
295.271196
314.6870321
277.7287803
266.6608985
295.2438576
292.7554727
314.7866012
273.1156844
271.579201
278.0362058
271.3726729
266.0184115
271.0015722
293.1730014
291.3230214
302.6998381
304.4429428
298.9592599
269.36582
269.3282933
270.8266476
263.1680055
304.2786263
293.1008504
295.6050665
261.5008729
283.4099394
318.6682744
338.8521929
321.265147
317.7378751
312.5845233
295.6959547
300.5672901
302.7029052
309.0862654
327.422258
346.2495621
373.8451102
377.2444529
335.6822994
344.426032
330.4181336
349.2195301
342.3724296
309.0265312
298.3603529
321.8097783
250.8227155
248.1335817
232.4865929
226.2182953
275.8255012
296.3348719
296.9330587
321.6095329
314.3558979
312.3189528
302.2238467
306.1646852
261.9093718
255.0764216
268.9597998
277.7028077
305.3671452
339.5610224
339.1848415
301.7755061
294.8105001
268.6974578
256.8157966
289.6528432
294.0809894
300.3636695
287.2854086
279.3268233
270.4010564
266.6853392
266.7557623
273.8129372
290.0434185
283.3352773
267.6192464
258.9408682
255.9530887
262.0035407
275.9356912
307.4815284
312.0587134
353.7948754
364.3033175
360.6670258
364.124102
290.5707984
256.4539202
262.5354653
272.8515521
252.9574151
298.034399
293.6092183
292.0850161
291.8228844
271.8941551
292.6699062
280.9140079
302.7048338
295.4760437
366.8907928
354.5908215
324.8174578
293.9200429
284.1047173
275.7004271
304.4963919
325.1777592
325.2795136
312.7102152
294.5377455
308.1549708
318.3506083
334.2720304
335.2274183
325.5221304
337.6416837
366.8185771
397.9729049
393.7083198
287.4293163
299.1898818
322.2770021
286.2074389
285.8656094
296.1358435
313.4754401
289.8100228
270.9956192
257.3888452
292.7570176
260.5845125
293.0954175
248.3758267
240.5838038
272.5312151
294.872513
298.3437018
300.8387818
326.6173461
312.5067728
304.2199012
319.0572094
312.3539354
299.7351301
296.1987538
310.5825082
311.2098925
292.8855045
311.6625118
336.222009
324.1889335
326.2765762
332.7805078
341.4050335
325.524948
336.3728354
331.1120043
335.4149348
300.2602641
326.6371393
297.2763318
284.9769314
292.9969508
288.8266827
286.2847089
325.641047
313.6705368
327.5057865
296.1242279
303.024532
281.0824869
295.1331333
297.7170918
305.4267912
284.9483623
285.6166631
270.3107919
259.3006366
308.7246626
334.9205839
349.0958489
327.2364556
311.120904
317.5215219
334.0007823
313.3972085
309.3308096
300.9741953
277.6698918
287.8873975
292.7111188
311.020524
317.5434546
305.5322122
326.6579185
326.6299644
348.6517789
370.3341484
338.9937553
346.6207072
301.4744106
276.8652561
282.6843597
283.6279211
259.7918015
265.7810029
280.4743258
268.3354182
280.1180795
302.8951581
307.4340108
312.5793526
305.0480658
291.2907185
289.622061
298.298149
305.6925701
327.8731345
341.8668051
265.9545248
251.7331323
241.7753873
246.9808815
253.6011144
254.6445492
279.498264
305.7021342
319.5836328
337.7023832
338.7078204
300.4559452
303.6354106
262.2646182
304.0992719
262.8325822
267.8990556
287.556339
280.0090591
263.9229639
238.1325815
268.2947831
281.5126572
294.0959974
292.1594966
272.6623045
276.0182055
272.5748603
283.5799471
294.1774275
272.9232715
304.7583856
273.2052088
302.7506211
295.1907914
304.9617968
287.2423588
282.8249398
254.0312695
257.7296437
314.122243
319.2634326
307.5834368
319.266858
302.7693555
325.0078521
314.6085754
292.9728153
289.2226194
314.5224188
306.1260852
292.3169476
288.3962626
291.723247
305.4598537
292.7279689
320.7830075
325.7459069
339.5762677
345.2637149
376.7213279
343.4748847
338.1130745
315.1087766
346.4187178
315.0425519
295.9795251
303.1136403
319.5012655
308.2839959
296.3444133
300.9071978
326.1487602
316.8039172
324.6325166
338.3043688
329.7180212
325.8415961
306.119483
335.7078193
308.2066519
332.1196343
298.8926754
333.9401752
328.1847488
328.233888
329.5513378
341.0933274
353.1385955
317.1071426
323.344873
334.591586
315.3157187
327.4660791
322.1940629
318.7058732
311.6477928
288.6104281
276.98798
291.6820992
327.6514198
326.6723022
314.5062134
309.3931533
302.7413928
302.7121458
292.628601
304.2125064
289.3154172
280.8946134
298.496565
279.6484735
305.9430748
283.9184592
278.0864192
283.0084324
275.6162012
283.1848799
310.0482465
329.758546
287.3491162
265.3266737
292.2790633
290.1082982
290.3082577
303.1716963
307.6297796
307.6680209
291.8838098
282.8338576
292.7132419
289.7465158
279.5854876
315.2665562
364.0314648
356.533681
365.9292012
353.9494008
329.3767803
317.5631901
257.9789402
257.7259276
280.8442745
277.7155485
296.2327781
305.4427642
322.8751237
331.2886479
326.4789143
315.6409716
299.7598193
298.2236733
299.8990921
316.2826208
325.1741285
319.3242096
296.2848496
262.8954863
293.3589673
268.6548819
319.941349
337.166845
361.8955923
346.6390997
298.441431
290.9003871
292.6791931
274.9743294
283.520593
278.081356
280.1257585
265.7041955
232.1306833
241.2135491
255.4206904
267.3319297
288.5305218
284.6922812
276.6174182
288.4143391
307.9253241
303.6244732
335.9979792
300.4030362
306.3070984
327.2141561
315.3611266
301.8568886
296.8412667
293.9192715
290.0486927
278.2205606
280.0722775
302.5425552
300.9535848
280.7502002
270.936094
274.2097419
301.999753
306.0653586
321.9148544
299.1352262
283.7475448
264.1458334
308.6608381
314.3322228
316.2598748
315.3968807
301.2212454
291.738703
294.7175206
285.2916948
294.704661
289.9333752
315.2585924
318.503245
316.76668
355.5465579
342.4350939
339.057519
319.215794
309.1907737
313.4703992
327.8034926
313.2975733
299.2768897
289.125219
292.3741381
303.4218037
338.9592542
322.6144839
305.7797917
296.6065848
288.3126865
292.0423004
315.0296674
316.0229444
315.3308582
300.2930084
294.1749887
279.6261096
282.4653833
268.2784424
281.7745675
296.4961093
311.2615781
314.3727811
304.8782173
283.5331152
278.9149924
286.4346741
295.0441937
338.1613898
342.2588414
329.1496918
321.5674286
329.8882711
348.4208403
288.6357284
289.9153451
297.4137992
267.251082
277.2187587
274.9405641
279.1087252
302.5934083
267.6518294
284.457397
304.1608786
307.5878747
309.7726606
340.4301571
333.9190273
291.8881589
301.1631809
292.9819348
308.4236793
310.0573814
320.9602821
315.3417371
278.6519491
315.548174
291.6021904
297.8973206
322.0834059
317.8691597
289.0626011
260.8387702
288.1808921
256.5980696
279.7600554
287.4081587
283.9608046
297.7087176
266.6332044
268.4452406
287.1568086
286.4528486
254.5896358
249.788625
280.4123782
288.4694332
311.4931442
323.8599826
295.1565094
310.553127
304.345587
336.9162751
336.003884
315.6931364
287.1147043
276.5665546
319.737744
309.7357253
322.8002745
349.6580726
360.9793367
328.3375125
317.6983334
296.3349631
297.2368823
278.0765139
289.2415918
291.0079657
292.7281328
312.633112
329.6740844
311.4700509
298.3356496
268.6027461
281.017386
288.042136
276.4697738
297.94305
287.203855
286.9032532
282.5878675
276.7824914
295.6270257
290.625059
326.1527612
315.3458901
298.1717034
278.0698215
271.2131185
274.8730216
269.4691588
281.3592959
306.2422647
303.7027839
312.950669
289.369166
304.7650203
298.2183803
330.5869596
319.467005
313.2027321
310.5325281
340.6670856
331.6184398
301.2605336
308.4775129
304.4870528
291.1564081
298.4607553
311.4334654
338.7577092
363.4906999
331.5894369
323.0448257
327.0211436
327.4206064
346.7523701
314.9186529
298.9547881
297.6273864
308.7729917
295.8727227
310.6294234
291.4819339
298.0970358
312.707261
374.4605534
353.0257644
329.5342522
348.4265287
295.4383934
287.4970174
297.1059944
318.9054507
303.3526211
314.0576618
297.444049
328.0944195
313.7962518
313.1462683
322.3100741
324.0624447
304.9663216
291.4512016
288.5204371
297.5187316
300.745072
302.4527668
305.640282
286.5990225
267.9269394
285.3208895
237.6009865
256.323449
261.3732651
256.274777
260.3255868
267.2514048
276.9489571
276.8755253
257.5491102
281.3417557
268.2974549
262.8784951
300.4866651
317.1121998
337.0722015
314.9984114
329.235529
336.541895
342.0934419
307.5835507
276.974912
289.233582
286.7193363
298.5989927
304.5572654
308.692377
292.6947602
288.2194827
320.197336
305.6062983
302.3724165
298.4390515
285.1148816
264.9821625
290.2235847
267.0349199
267.2773108
249.1817277
234.1721499
283.8278847
292.6427497
286.6113793
277.8389331
294.0245359
309.1773361
300.7377937
313.2794699
306.8837076
300.2449223
300.0614181
289.4196417
285.5316039
277.1910734
307.3861963
304.3656201
323.1902689
318.5359926
294.5138488
264.2125686
262.7631366
273.295444
288.2124733
276.3880624
282.1453088
275.9125516
266.7996237
270.6689175
286.5622074
276.0563545
299.8105267
262.5800467
269.0308804
290.9711356
288.2374646
241.1921113
254.629075
245.9620914
278.5781866
297.9800608
319.7021457
346.834767
334.8732914
325.3872587
290.2786903
275.3178844
289.3763572
307.373417
280.6079304
278.1533668
276.186422
296.7028489
305.1897965
268.2405794
292.2824499
325.9734949
305.4317947
348.3802838
301.7544211
329.044382
317.6716568
308.7803544
308.6289031
299.9279966
285.1659057
286.4868161
285.6841846
272.973506
287.9338145
310.7035492
301.6390482
276.036596
269.1493106
297.0994142
283.7150382
283.9118444
305.5203352
299.889491
291.7719055
276.6545002
273.3745305
296.2073846
308.6884391
305.9818975
306.6354553
300.774849
305.8468471
309.2368682
296.7350588
301.1406256
311.5820405
316.3180699
308.6448935
320.59701
330.8597532
320.8551633
291.6534961
320.5913693
299.1181945
316.3400823
279.7115969
306.23962
303.0450526
298.6919365
289.0046476
287.4001075
286.1220625
299.7226631
293.310356
318.0103115
317.6032997
297.3747183
322.6513588
327.6027037
331.0402065
345.7590652
357.042395
307.4938451
295.56975
297.8319637
280.4044677
256.6857868
284.4935639
317.8392862
293.7407961
305.9986753
343.3937618
374.8647255
329.6242836
312.7828829
314.5647559
275.0673466
298.7143894
304.6082967
347.8880188
346.0462505
313.0166393
307.4547054
256.6301934
237.8536301
251.8570722
273.3829468
292.5859877
277.5206137
246.1519398
266.773483
276.4419292
277.7118786
286.2831305
320.1398706
333.0319221
326.576168
296.1909419
317.982955
298.0007565
291.23581
285.9125113
314.0679588
321.8759585
310.6431482
274.3712154
286.1119885
264.2123242
259.5018457
259.1514525
273.1406196
304.1132419
320.9913275
325.8779554
323.6220035
338.8428684
341.9449505
343.0816329
314.0264687
299.7150368
302.5549192
316.1512682
286.4841272
274.6856697
301.9731417
313.1474536
291.5429976
309.297987
289.5411442
287.3478927
268.6632159
288.2811113
300.5523993
274.8355045
270.9444766
268.0562043
264.9474215
321.721496
292.2039011
305.2026045
318.5144688
315.7187874
309.6710085
303.4402486
307.1285971
297.9318926
299.7209033
310.1981032
329.6774423
348.0651121
332.0493272
329.3408818
303.9760787
295.7234418
290.4040485
315.0306614
285.0760291
295.642543
301.023594
293.1780922
298.763486
302.4383769
323.25177
304.5182177
303.3835239
284.2197026
298.2244803
302.4640672
315.5481134
315.8590056
313.3591864
311.4518132
296.5610532
285.2161483
264.1025082
241.6949535
265.6315383
275.7663213
323.3200759
303.3862413
300.2296341
296.0024669
276.9486898
285.9516844
270.8858962
267.2774354
271.3544192
285.2217918
284.2138414
257.563393
249.4378207
245.966108
264.226691
263.2138131
279.8050404
310.6573306
293.5205528
299.6475078
349.1549315
339.7448405
311.7373936
298.6255293
289.2413076
274.856762
282.9106946
293.8267067
286.1175274
303.7476371
320.5189891
305.9056307
279.6440779
261.4737688
270.0018548
266.1516628
291.59719
285.0227978
291.3284451
338.8707942
310.0679775
302.4058068
326.3912413
344.4774032
299.6180191
333.0150815
322.1388999
313.9880724
306.9769348
286.6364186
300.6741791
308.270655
317.749561
302.0775413
297.5349116
296.2799127
312.6425871
309.20215
306.9414091
301.3313339
316.991457
338.6915674
314.8093526
293.055592
304.6049754
322.4127817
347.3675673
353.6490373
349.1677406
362.2916425
331.5611656
340.8554366
329.6783085
319.2993046
361.8611572
355.8501921
318.7257554
313.6512918
290.7032209
298.629306
304.6062422
308.303145
299.2568355
298.0212865
286.8680128
249.9603574
257.5576729
258.6948227
288.8120921
307.7220686
330.0040663
329.3618228
333.2737271
364.5210789
343.199663
366.4048888
339.7133243
341.1190435
335.6497801
315.1253899
267.0003784
264.0740239
250.8271419
253.0571718
286.5607354
297.6278014
324.5975317
335.5406303
360.9714061
351.1178912
317.8106273
289.8168039
267.8413148
283.8002246
286.9482153
284.1354339
306.16034
316.0959922
307.0248519
298.7354156
315.7769097
302.520195
303.9543675
310.3152498
308.9605473
312.8138639
318.3675368
292.9151507
314.0829847
314.7031421
308.4190255
292.3756881
295.5954702
273.1981021
267.4811207
274.7474556
265.8593911
265.0545374
263.3633116
289.7999892
343.9524982
323.2729871
310.5478615
326.0253095
314.8227298
302.8305451
281.806069
281.1441331
288.2923312
308.6951451
319.697169
307.1430996
299.4087434
294.4935183
287.842622
303.2859631
294.924319
292.484557
313.1846217
336.3031915
263.1212274
277.6165118
296.3517743
300.6026081
282.7444081
284.4805008
293.1019177
303.9805758
297.6399329
313.200795
304.7652273
303.4265767
293.8632156
303.40285
280.6507622
275.3919787
255.5339114
249.0916903
250.8159175
259.2178479
305.9635874
344.1794337
318.5655974
291.3272269
309.975672
315.7142963
329.8932828
340.9218433
333.9504687
307.3629758
289.8023406
318.9624985
288.7790108
288.5380536
274.3749984
277.3764955
277.5546352
304.0746352
292.7101256
293.5996839
284.4066849
311.3957957
328.4662471
358.2270908
366.929715
369.5179021
362.0909218
356.4705245
343.5518793
273.4040516
273.1073722
307.681508
310.6459706
288.1205571
273.2140886
299.3832108
286.8521631
301.012268
303.4446502
286.5732399
314.0015962
314.7917832
298.9675832
323.2004095
305.7565067
285.6535919
287.2554505
289.7405465
327.3063534
350.9763073
355.780154
345.875756
305.9304587
292.0503442
260.1368867
282.9148929
284.7928665
324.550151
321.8765479
289.5414807
302.4987022
337.9980711
350.3490753
326.334623
330.3407058
307.2290703
323.8858447
294.302951
287.4847515
310.7233512
323.5987165
349.8360584
378.9887735
381.0456499
361.1498603
324.0164199
319.5100441
314.5315406
313.8592454
298.8506049
326.6388962
318.9602172
320.2889245
324.816099
338.9167498
353.1196716
329.8893459
309.8283566
313.4244457
328.4613721
287.9895226
297.6649897
311.8175639
299.4906597
313.9567412
303.7369932
314.4692925
324.4147917
317.4652752
313.9882746
331.7210481
330.6371162
325.2947287
295.8518178
264.1141625
249.195456
252.1322725
285.5825061
293.9481747
305.4957085
298.7774852
290.0233644
285.8874945
278.2520281
279.000044
294.345614
297.7654011
304.4679322
314.393694
328.948814
287.4551706
309.2137538
328.4745601
321.2634775
322.0208767
334.8260358
336.1733929
358.7016781
326.6186605
336.9941315
311.8379829
347.0551563
329.4471748
302.9544151
310.3627615
291.6492419
294.7468962
314.0670048
307.5036717
293.0860528
294.9349479
297.626258
269.2161171
275.9256268
292.1966343
312.3052764
300.0162733
316.1381381
316.26426
317.8827619
325.2158545
298.0338815
282.1829535
291.9726873
293.8578367
314.6994749
316.5466463
288.7908359
295.2982687
299.7258448
270.9694444
266.9048582
273.4168307
274.9800947
284.5882624
319.2168162
327.1673946
310.3019341
286.1157825
298.018923
298.1475292
341.6555738
333.2484075
326.0365206
329.2004688
304.5050409
291.0360764
276.1872726
285.2590297
268.1385628
305.3150538
307.2155255
302.1499996
297.4856262
317.5413738
298.302525
292.9563914
306.0651048
318.3293156
279.786331
344.7216517
317.5948027
309.8245204
331.8898936
331.5076472
297.18633
306.6134044
306.8119908
314.2127989
318.8710302
304.9233312
310.7366376
307.50401
292.4499168
243.6900902
252.4688398
257.3897597
256.4239661
264.2049351
261.7535473
239.469616
255.3120709
289.4014319
276.1475813
299.4023791
343.6907625
343.3883534
384.8152507
359.2382035
331.7674437
293.9275841
279.6755934
264.7646035
281.5273714
262.2573348
271.8160819
277.4901245
304.2884244
256.0559159
247.7250033
239.7945057
283.725014
308.1290483
281.260751
285.5165496
281.4988005
289.7394547
279.0950283
302.15889
315.8213166
287.1390787
291.506061
285.7716637
293.970076
304.8427667
299.9127966
302.6438671
326.6012527
333.155823
305.5798014
319.4903799
299.6833663
307.3798703
291.3990718
272.4154019
290.8635719
282.1408268
300.9599282
273.927339
279.4730907
286.0005011
284.8094926
277.2923401
275.4712764
270.3503591
273.3089805
279.8906714
279.2599698
276.000963
255.6779545
270.2271795
282.4718311
297.4511388
291.3251226
297.1047497
274.2213721
250.4860142
266.8409032
250.663029
255.8813087
286.8355293
300.1075707
298.0918064
285.5083377
275.2186464
300.7131897
311.3743932
331.3683208
345.7747871
368.037377
380.4035638
385.8500167
371.620746
360.4782757
360.7962191
354.6078496
357.6475052
322.5541003
323.2861721
306.3795556
290.2711874
279.7250866
265.4400442
269.0889334
312.0060927
309.1554934
288.8403621
297.0162095
270.1238656
279.8120931
284.0476053
287.4072325
295.4395562
276.0346454
269.9747613
271.0695038
307.6194437
328.8933534
317.1083967
304.8920573
304.4312509
315.7236417
310.416195
313.8432233
283.0740784
296.8907494
317.9371607
354.2423996
342.3366375
312.4365556
329.4561861
321.7073998
299.4549665
301.6406832
310.648156
320.9453314
314.0339706
294.4030311
287.6289069
292.7877543
297.0420554
320.2124447
319.2846502
312.1162161
308.3580976
331.1433896
314.1350123
324.0418845
326.4199197
308.8731226
310.6243466
297.6554143
308.4956769
304.8348747
295.9984898
276.5809183
297.3158766
305.1775505
283.0442436
289.5365905
312.7991874
281.0011201
285.2479525
307.9020852
310.0246612
330.4653244
313.5458339
300.7840245
286.3967942
342.1760436
353.4525394
345.6330596
343.7267002
349.8456355
342.36455
321.5316608
322.5143343
282.1470254
280.190999
308.1838544
316.4546612
300.2548286
299.3183892
318.1620795
300.4105217
316.296632
305.4605608
309.8316872
312.5247072
287.2718265
275.762873
279.2890358
275.8206937
281.2643039
280.1217993
312.3467011
334.0336635
280.9013576
296.0495197
311.9720826
279.6012747
305.7752481
308.437387
328.4861794
367.2689477
371.1088716
362.5394633
363.8370156
359.0743607
361.130975
367.1187343
368.5648296
338.0489017
338.5789664
323.985532
342.4374608
289.3264238
324.0149018
307.1287135
315.7793657
326.8303454
335.3739212
337.553298
380.6952784
370.680883
371.6638862
359.3141017
390.5558513
381.4707823
374.0068808
348.7532228
341.2975208
345.8014861
336.1130432
306.915834
327.6278719
310.59697
312.8517712
326.8123077
354.050882
309.3322429
299.8115907
321.822321
332.4609497
334.4056549
313.5509248
297.4608779
270.4956383
249.9698302
250.8995716
249.7531748
246.4967235
263.6749835
291.7282837
304.0490403
330.4444248
331.2132701
325.997344
340.221527
323.3843065
283.0110723
329.351411
298.8405743
314.1904873
292.4618196
276.8397883
290.1691139
288.4971859
291.7808025
288.4419391
290.9458277
316.5311383
314.3846601
323.8701256
310.3116048
318.7240473
316.8482771
292.6820002
271.7087661
282.7790861
254.8570311
289.3074374
334.0238759
358.1185368
337.3714038
331.2532012
354.9033367
350.4047466
364.1618382
348.7894997
330.0795258
293.9614759
320.2790215
289.8538992
289.7664669
266.4801389
248.1316611
283.0872416
278.2034009
286.8656208
328.9302754
356.0355442
315.8681036
325.4641124
329.220638
307.5488639
310.6538683
266.2559193
276.782476
303.0485001
294.6382778
284.0187305
296.9062458
277.4606311
273.5000306
303.2712357
294.5680715
298.8950052
314.6082257
314.0418117
300.921297
291.9150932
274.0481281
268.2477388
283.130745
292.6902887
305.747702
276.8091431
272.3334282
272.6458258
266.8447185
256.4866742
254.7142421
260.8095028
242.1140478
246.7492652
249.2002336
261.2844154
256.4485302
296.4432394
295.9933599
310.0104259
307.5725545
309.3361357
331.8072649
320.2666044
315.7411625
334.3161208
292.1245432
296.9415814
301.3629525
294.2196518
289.9417614
298.7718829
302.6286924
300.9424602
309.3844788
315.4142283
316.7207385
297.6435732
297.0476421
295.3515085
319.7123378
313.94621
289.2522073
300.9988065
304.9337148
293.5913937
284.064022
302.4126367
298.0603708
307.6777384
293.1782109
300.6166928
299.5523676
270.7499416
269.7082472
245.8178073
287.3246345
289.0359789
318.8604008
326.1569614
308.1754977
325.1165476
327.8322871
371.0936702
342.5185537
313.8640118
330.9633751
291.8597057
276.7417941
307.4520472
288.6825224
300.5652443
277.9568305
292.4811097
328.7395498
305.8948104
323.8856786
316.9231578
339.2006424
305.2522722
309.0005626
304.0225308
295.5128658
264.0753513
297.112809
275.7333453
290.0015424
284.7901931
268.545102
296.3370674
307.3724656
307.0496843
299.7169113
292.1727476
282.9765253
325.3669103
329.4008987
339.4744703
266.5242317
280.7077421
290.9309543
302.4841694
316.7782822
319.4980775
298.4476651
294.9802601
307.6521688
308.800071
301.9735915
297.148303
294.3687836
281.5670854
302.230729
284.1169861
307.5990752
322.8671319
282.471887
254.0411126
315.6069128
312.28638
305.3204876
294.9536707
314.218943
301.819908
300.13425
288.4460574
287.6947201
326.1844311
370.8118052
333.1768368
349.1268743
339.0279857
315.1648408
287.1159486
276.3366407
282.2856767
289.5974925
301.0812161
302.2125975
325.7652851
345.363875
351.5821369
343.2623609
339.2303225
362.971288
368.5525062
373.0817096
354.0674209
333.6855896
331.6633823
322.9668367
285.6495023
314.0027563
313.6521211
340.9634759
330.0911685
315.8467072
316.1746296
312.7398135
285.3596842
284.9839639
282.8999858
273.3014284
274.8184386
267.7589883
270.0338122
298.2219049
283.8118256
276.1353662
273.1057139
283.1182792
310.0988
304.4731043
301.3520201
271.3743273
305.4410371
310.1601029
314.1327463
311.9770505
324.5544954
311.3749601
308.1049218
313.1403362
306.5386336
302.5906523
310.3568454
293.6977834
296.9174351
312.8750261
345.8142987
344.5524382
308.1781642
317.4698374
305.7198435
298.3004291
328.9029441
334.1709028
309.814115
318.6957429
305.7455331
304.193332
301.212425
298.0150116
284.5159046
304.512537
293.7421685
311.4606193
320.9520144
304.4555016
305.609535
332.6932234
307.2198341
325.7348007
318.8797631
327.3497913
313.6963718
316.5162093
286.9243128
292.0843708
280.3566365
297.9357249
271.3315262
279.4195242
258.9425379
265.7423233
260.9795191
262.1135648
270.6067421
273.6874998
263.7698174
283.1765836
303.132411
322.3969269
337.5275858
344.5265719
323.3538019
302.4848645
305.506775
341.7721202
342.6922643
338.7869749
305.4774924
296.8610409
328.9517701
320.4948478
313.3069301
302.7298904
290.2082352
274.134228
292.040685
301.0014832
322.1911557
320.5477507
342.0035079
324.4548537
309.3235656
347.3564563
345.1735788
312.4121571
318.9980777
321.5820714
326.9784229
313.1497519
294.9209135
294.079415
292.2849762
303.3973934
306.7707011
322.3797745
283.3307943
258.7564855
272.4347569
287.8605979
298.1206031
321.6632253
311.569127
330.3298714
312.6020806
301.0467193
341.6441402
353.4360663
324.7283259
340.0320836
321.302995
308.9807037
299.5852506
303.2761127
337.1343162
357.1276843
363.4785258