/*--------------------------------*- C++ -*----------------------------------*\
| =========                 |                                                 |
| \\      /  F ield         | OpenFOAM: The Open Source CFD Toolbox           |
|  \\    /   O peration     | Version:  2.4.0-MNF                             |
|   \\  /    A nd           | Web:      www.OpenFOAM.org                      |
|    \\/     M anipulation  |                                                 |
\*---------------------------------------------------------------------------*/
FoamFile
{
    version     2.0;
    format      ascii;
    class       volScalarField;
    location    "0.001";
    object      rotationalT_N2;
}
// * * * * * * * * * * * * * * * * * * * * * * * * * * * * * * * * * * * * * //

dimensions      [0 0 0 1 0 0 0];

internalField   nonuniform List<scalar> 
5120
(
289.5954431
301.4929655
311.0300598
295.4178552
289.4261186
313.1552997
328.0359073
316.4903778
306.5950919
303.9164513
317.7017232
316.5666209
331.7292483
313.240786
321.5981341
307.1165169
298.6610236
302.601123
284.3557958
291.1450299
323.7720722
326.920545
312.5411166
305.8864704
286.4567319
302.6600171
317.9015486
317.7793481
330.5887666
328.4241025
315.7778091
299.5843733
286.7020514
285.9783571
286.9249306
290.5086875
284.2036205
291.7530629
311.0912584
325.7804269
351.6001362
340.2656426
326.1278172
305.5708007
304.7223173
289.5383887
298.5122529
301.3707413
285.4375504
285.8778202
302.1017072
299.0290421
306.0528338
292.2578243
282.0595843
272.3855754
287.0175934
299.3616576
322.8991276
340.1630808
279.0788738
291.2838824
291.5927174
287.4409794
284.1757697
283.7689614
286.185601
275.5343508
285.2660746
303.2041138
304.6262505
305.246242
299.2978551
296.5073499
295.8174432
300.9718559
302.3039832
304.8591655
298.9408728
284.4168023
289.8743313
298.4349744
308.5399597
306.6005471
301.6921882
311.2122757
312.3164334
298.9789464
301.9074223
309.6836248
290.593373
283.5395222
287.2810243
291.9119958
293.9400164
291.0630284
294.0486614
305.4983844
290.765097
288.1279687
296.8226155
301.7413643
328.9110971
341.672763
333.8129148
320.2502731
333.3838838
330.6444926
325.0292459
322.3440573
327.4439089
298.8784245
289.7031624
294.8625267
305.805065
300.5598171
308.9180092
292.4870936
299.1864164
300.0354015
308.5041265
310.2192481
294.1942087
290.2564369
299.7426698
313.9783895
310.6485929
303.0585318
309.4730821
314.5927575
325.831092
329.8160877
323.5456433
312.1426871
306.0616637
287.6352244
278.282117
292.3828305
297.2143595
297.3158199
316.5548873
302.6828419
291.7832705
307.9631306
297.4376562
304.3540496
295.3139477
298.0714657
300.4517306
289.623796
292.5707153
299.488129
296.7006242
296.1274083
284.2885155
285.6912458
290.6397079
299.2521258
310.3217016
314.0415775
302.5682971
318.7868625
311.1194234
292.6652142
285.9948779
286.0579483
309.3667332
324.5037026
323.9122989
303.4508466
315.45372
319.316421
305.1402964
290.0147397
305.5099665
312.4640096
294.7212319
313.9295087
304.0451167
304.7536913
288.0867574
291.3637589
297.1496029
301.485675
300.6412087
309.0023189
302.898077
295.4244422
294.1566882
313.4699059
305.7922937
295.9908247
288.4591624
291.4477155
281.3735261
283.217403
301.0181165
296.1649184
311.5039306
301.1349931
295.1562249
301.0454741
306.1066458
301.8194013
309.8806876
305.9461616
310.6191058
316.8433997
290.1406319
288.6666174
287.3213898
287.6942368
281.5597215
286.410635
291.4303621
283.1844698
261.9135769
266.4992998
266.8338505
278.6176549
296.9088696
289.0890462
281.5427069
271.8747895
284.006384
303.4323596
296.956834
296.8285872
296.0340266
298.7645945
288.8160126
284.1297609
275.4583289
272.000816
279.3620245
275.0172846
299.3980542
295.2016876
302.656616
308.4369043
290.6633718
294.9059729
286.0915853
311.1588404
309.8243982
300.8276434
286.9036671
285.7604343
284.1115997
281.2862443
277.1542687
279.2090083
286.7561519
289.7763025
280.2555856
289.4890285
284.1230546
283.8742498
290.9023239
299.5657168
284.4088107
300.9457758
308.6650983
310.0192563
320.8713395
328.7338565
337.2099429
312.2244334
312.3842983
300.0693403
306.7895922
287.8036559
281.8578889
276.7951556
279.3731317
278.8060687
272.7104668
279.8541299
280.8619073
285.0262192
283.8779816
262.5363639
260.5675072
265.4675641
277.368794
283.2485489
280.8585336
288.9495318
304.9900027
303.739057
314.7957487
322.2603258
295.1607346
301.7552764
297.6712539
299.8500795
302.9876127
301.969674
297.6158347
290.4116804
299.2249041
298.2904278
286.3844596
306.7796356
293.9342941
275.7933653
283.01824
292.6611381
294.977817
285.4677376
292.2023244
290.0053871
307.57542
310.8951501
295.6015196
296.2371998
288.4352378
295.5408925
307.0157534
299.9945071
290.1238788
286.2227268
273.678015
299.0672239
292.6084145
287.7333358
284.3425376
285.3840778
306.0366794
295.8504385
291.6058055
289.2184526
291.5438284
294.4643969
287.2015737
306.3033886
305.4937901
298.6933562
297.4870139
296.1677582
295.2651344
300.6767692
312.7078299
311.9563344
311.4851382
311.8339001
302.3348328
291.1440864
293.6935893
284.3363444
304.7618146
320.7569116
325.5170192
326.9147446
320.3231314
317.1306513
310.8440227
306.4887902
303.18558
299.6654078
295.5978252
291.4497473
278.7520899
284.6796678
282.7914432
295.0165537
302.4161692
300.5872516
289.9465991
299.098936
286.3399505
298.4823699
288.9262376
295.7025202
299.9680097
307.7415223
314.5042748
317.5585089
308.0152471
303.2325234
316.9706462
307.9844147
315.3891484
299.0857246
296.3028748
307.762616
329.0020192
337.9943439
322.3761783
312.0474627
301.6238666
301.4033216
308.8473709
322.3833155
317.2965195
307.4482839
310.6080659
300.9288325
304.4969709
320.0023845
317.0801972
311.7725886
298.7718911
313.1309921
330.4401421
327.6397675
303.9518902
294.3643538
294.407141
293.756945
293.3582833
294.8696009
285.7291188
279.0668807
290.538098
300.63586
296.1883799
289.6984777
290.8149952
313.7265169
322.9349356
315.5910757
330.8722555
316.6656808
317.1043772
328.9711128
341.7510922
304.3738274
286.0907326
282.7256235
279.9437648
284.9094428
283.7349149
296.7565618
291.2047389
289.716253
288.7108743
292.6282533
308.7203475
315.7618134
312.8538818
305.7836247
297.5625388
275.6839597
285.4996962
288.4659229
290.7754618
290.2142482
295.8453248
285.1141027
287.5055721
295.1688555
291.5940044
281.9699109
296.5617193
301.9934504
316.2842846
316.2436381
304.6127662
316.6642968
285.9173387
300.4190048
312.8925799
310.238109
298.5475357
305.4167118
284.9581974
272.6301177
278.4049511
295.4042943
292.4269767
282.8817454
285.7155152
301.8594283
299.6246617
304.4878326
300.3769258
303.2907343
284.3615459
284.6742397
303.9662488
303.4977625
310.2343776
308.7173193
315.1343516
321.6054582
321.9953467
324.9482248
334.7572908
338.4673061
335.6587486
332.1556268
319.0591864
317.9489644
305.0847109
300.7777697
289.8612677
288.5571704
300.94331
313.4219002
268.0649542
263.5700174
259.6911142
276.9688937
301.6733872
302.4787459
306.2280175
298.8235897
300.1068389
300.4382999
299.0108315
291.5029741
299.9456375
305.6793481
313.9811422
299.1606283
278.956717
268.6320957
256.7528707
268.6055576
289.2078892
289.3536658
303.8814254
302.908348
289.5569292
287.9159933
302.8629584
283.0598157
294.2512226
290.9653575
291.6551648
289.5169428
307.3193393
312.3719814
297.2761077
297.1100433
301.9344814
303.3765159
290.974451
289.2824112
304.5804873
302.4790432
300.9769489
290.0771085
293.9845744
294.0504107
300.7543816
315.1876104
310.3760626
310.2109395
309.7313204
293.6361678
307.1129285
301.5123014
292.0552569
302.6738197
312.8625421
317.8559122
302.8132064
298.718926
294.1747257
288.3152136
285.1315362
278.8578764
284.7549553
280.8530403
296.2781079
292.6518493
303.3477379
300.4133327
298.6152921
316.8855808
308.9832134
291.5043747
289.2186041
272.1230281
272.1784481
281.7442788
288.2803085
289.8857585
274.2575609
291.8578165
289.367159
286.2806027
292.5441485
298.2550084
302.638601
308.6537447
293.8889104
288.1181037
292.4628681
294.5649991
276.2492126
282.3432683
269.368497
275.2732188
272.2853929
271.6764166
284.2121427
278.4988364
277.8212366
279.8202857
280.8615678
297.865442
316.5124498
310.9471459
310.3864791
309.9670348
289.8500632
294.5566191
282.660675
276.5419875
284.9408667
287.7923794
307.9417294
307.7172706
308.7025065
293.3128389
275.7007017
273.3348913
290.6330767
292.3065862
290.1007826
282.4810987
279.9953909
270.3937615
274.0383062
297.8051078
309.8195493
321.7543599
326.219071
323.7997683
317.9453925
304.337038
318.1027099
311.9709194
306.3245367
305.6826663
313.3708142
296.7740506
318.8686115
298.5312842
298.1056417
304.4198156
282.7522429
270.3260248
271.0277439
271.9376891
282.5008303
297.5251045
306.1784263
319.2760709
305.0677172
295.4323341
317.3724874
310.124696
319.0476834
324.5627508
322.5930178
325.1671294
329.1727337
311.8552074
310.217968
286.7365907
285.9003041
305.1654957
325.3706233
312.5313779
301.9657995
300.6674954
311.2562435
310.7855024
314.0780207
319.6833479
310.4057207
304.6825834
311.9514794
317.7726135
318.9814412
323.9955118
334.6742848
328.0666104
315.2366046
328.0563691
324.3199821
302.2819561
310.2117068
327.6786183
322.1032528
314.3744203
302.8838289
307.5788181
291.2504724
289.6289082
290.2934985
295.6214011
301.8762494
306.0261302
298.4860442
330.7600302
308.9678301
325.1300517
342.5659846
326.3427035
316.8962534
306.7878036
308.5999249
313.6134463
316.9499014
328.2188328
329.931958
324.3709613
346.0654206
329.5474673
315.0797118
316.5848044
299.7522709
296.08939
293.2175991
299.5936046
316.0094261
320.4389494
322.5089899
320.8620091
298.0683798
304.4988455
307.2286302
304.2164935
289.7293161
289.1141083
284.242599
274.7595438
280.4903749
302.9775974
311.7702042
319.1572084
336.3678931
346.4190758
329.8396476
331.689919
286.4567722
290.0544915
285.264895
286.6814894
290.1201662
276.0798022
281.8051939
283.3314574
289.4656044
286.4634099
289.0352011
307.5146852
304.3357256
304.194588
306.8641265
317.795238
323.2342337
324.5850108
302.6739798
279.5900498
279.725603
278.838844
284.1167164
290.6046053
276.859123
277.3908728
271.4589759
276.1526599
270.1417036
289.4840986
275.3559559
283.8136928
273.3745984
271.2148508
272.6822552
273.4470533
265.9867219
264.4867834
258.2895246
270.1212264
287.0341069
288.2962731
283.849642
277.5069247
275.9134662
273.3666978
285.0961907
294.3742641
281.6920078
285.066398
284.3939788
296.470041
297.8063349
283.744063
282.4962867
291.8544592
297.748992
303.9864866
289.3123177
297.1185261
322.1395281
314.2155555
320.7029074
309.1533151
296.6676154
293.7745076
314.4568535
310.5348345
315.7932892
314.6450715
318.1054162
314.9114021
313.4517687
317.3289179
310.9516002
309.4322304
314.0416796
319.6892939
325.8913986
330.3551431
325.690615
320.6107665
321.1687551
313.2475454
313.0459078
299.3433555
306.8236084
309.5997978
299.8126288
310.7203056
312.5050143
312.3262283
294.7402074
303.6132155
318.5900299
311.4633944
311.2483542
317.6368458
317.7879208
323.9475567
292.2616194
299.2226345
303.3809727
303.9685795
290.0881441
296.4922741
308.359207
320.4393964
303.9142001
297.466705
287.1909196
294.229504
281.7738632
292.9606727
308.2226116
319.5528202
315.9840121
315.560405
308.4438406
291.9213657
289.9097213
290.4597925
295.2344775
302.8529615
315.2815897
300.2674745
301.062249
309.8875505
311.5098583
303.041766
296.0789318
300.9448368
309.0879146
310.872578
308.4763416
304.9698191
291.8505289
282.9285651
300.2477971
286.9803738
295.6852908
283.7905966
297.1650466
305.3924132
295.2803575
283.6086009
269.7137144
265.3885409
245.0138515
260.4997856
274.0435895
283.7234301
282.7915925
286.3539311
290.649346
273.6751273
270.4828691
283.8901763
275.805815
290.4726054
293.664133
296.6626995
294.4814286
287.106248
271.1784925
272.252815
276.2708147
298.426933
306.2424297
290.7399273
286.7261158
283.3582383
287.5441999
275.2505462
269.0703128
281.9373589
283.1981086
288.662602
280.7807013
275.2089076
318.6654716
317.2501783
313.2530042
288.2765675
284.1098647
279.6530294
291.0286164
284.4764244
300.5749475
310.5548577
295.1496572
296.0387989
315.021872
305.0686224
308.0742734
297.8779309
303.8928328
316.1043637
324.5918666
326.0295598
301.5806499
295.1135797
295.3160996
302.6314274
308.8711864
311.9682461
314.0053577
303.9308397
300.3701872
302.1635742
300.4658124
306.9999381
308.3784419
315.6812129
312.1256989
301.0895894
298.0603303
288.642876
300.3272774
300.8535323
263.4961351
275.2413949
278.6261977
296.8020331
300.2779258
312.5719742
302.845588
311.6958876
297.0104663
292.714027
292.1569761
296.3806585
294.9734263
286.847589
281.1831124
287.926415
290.9708547
290.5407167
279.8077335
272.1713293
285.6383864
296.5964426
305.2267189
316.1401532
317.1433355
298.2336856
310.1040013
290.9814286
285.6834632
289.7902349
285.6358498
298.5274185
297.4690859
304.1639837
308.5476021
301.013503
293.2260695
299.6142864
298.3687688
289.0658646
317.3594376
318.7381557
330.862709
308.8118849
305.9789594
312.5182575
307.5255893
311.555115
313.3935711
316.3496251
320.9289201
317.7133015
320.0444844
316.4216239
312.3286751
310.5397234
307.2726153
301.5304807
305.9852459
321.9582474
278.7373553
289.6876925
289.6607045
287.3338227
298.0980931
294.6679597
313.5950872
302.6030806
300.9376058
307.3836681
312.4255918
325.9148297
313.4731329
308.2956547
303.8248185
289.8771052
300.4436684
291.2656082
286.9834664
281.4786717
313.466862
280.1271448
274.2922981
278.8961215
276.9751887
281.7686679
295.3739686
313.1116157
322.1161607
302.3977045
300.2156068
298.2424177
294.3118831
304.3036817
314.6819602
310.6961703
301.2130942
294.4900991
311.2707018
312.7025961
270.9474392
297.8501317
296.8577251
287.0681062
301.9752396
303.573319
308.3817164
295.9232583
282.4242622
281.9846933
281.9355892
283.1186209
286.6552706
290.8178236
298.9248033
309.7317586
316.596103
313.5682434
304.5863383
280.8503895
323.5069372
320.9241213
310.3982442
301.1601411
288.8101604
269.853842
271.3538423
278.1663226
300.6135816
295.5706697
310.415074
321.086202
323.9270183
319.319108
309.8788274
301.3491014
295.539804
283.1252386
300.8485699
315.9117654
299.1938224
296.15322
297.5045895
306.0459614
312.7530398
314.5474276
312.1548549
301.5818705
294.0690636
309.9617508
318.948664
312.0446908
304.2364259
309.1763445
303.8444165
309.4715084
298.6725378
301.9023863
316.1321876
308.6919435
316.399398
307.7517605
313.1927905
314.0986624
307.11773
317.3604662
313.8414349
321.3933333
311.7709483
313.4835892
315.0219133
324.1749078
329.0291246
318.4477939
315.8099592
315.8952513
298.1931307
285.5617555
307.8809358
330.0919832
330.871713
330.4925862
319.5664766
325.4494885
314.6230862
308.7907566
306.8941039
308.6703273
309.4585172
303.2110807
300.7715955
309.4435012
320.7537409
312.9280063
305.6361016
301.8250538
305.1813064
322.8313807
321.4054427
315.3659991
317.5740791
309.389388
306.6611784
305.2897288
291.3751772
284.7575234
277.3769109
278.8305986
281.4990444
289.4717664
286.7089975
309.4446124
306.2533874
314.0331698
318.5845027
330.8803102
324.1874998
324.949214
322.3639098
315.0024781
296.2494961
296.4074008
302.5220416
293.4128142
304.1768927
290.0409362
289.9373636
299.1212389
297.2721449
292.0808431
305.9080718
310.1317623
311.1852575
309.07031
300.6894446
308.2269858
302.7455052
311.9854754
309.2640239
294.4867525
325.7054581
318.9465245
336.526239
335.7407894
317.7102329
301.6095907
288.4243371
280.6594104
306.6139073
319.9808762
312.4556666
302.060144
319.0847778
317.6652269
320.5247844
315.0284589
315.5439709
308.0114653
306.5734731
324.9301554
321.8219347
297.6576574
291.228891
296.2976326
310.3966863
325.4196114
300.5703015
310.3380805
310.3465826
297.9435199
305.2855681
293.8236869
302.6369189
296.4416477
304.5873183
301.5050338
297.3440932
312.6033601
305.3224433
313.8548015
321.8769064
319.2692162
311.3758305
320.4185975
300.6814425
288.3596845
294.9066978
294.4861268
277.0823338
280.0301226
273.6962267
286.6455605
276.1279033
296.3948606
303.4843595
320.5129087
330.7318658
336.5174612
336.0935988
321.5498883
307.4047058
296.5361587
286.300325
276.5865878
278.7011136
275.6463246
286.5045929
281.2943524
298.8651949
302.9817886
305.2762032
305.254028
296.0222571
302.2103101
301.0070769
312.9209992
314.6714916
318.3965926
322.0459956
323.5437993
293.6690557
295.8226445
289.5372087
285.8044225
276.7145266
293.0107477
295.7484016
306.0080435
312.6153978
324.5627603
321.5178435
327.7033515
314.6715734
308.0190661
316.2667863
307.4583897
318.3288403
304.3699003
296.6416062
298.7510836
289.9763282
284.5976781
289.4976527
284.1679292
310.6567538
303.7038217
302.0988963
314.0801591
313.7784541
299.9740605
294.2754606
277.0137068
300.5869097
307.4830242
300.8316483
296.0136494
291.3389707
286.3303664
291.5807491
290.382494
314.7141112
311.2759269
298.9385288
301.0875425
295.7326401
291.0941111
288.0107415
300.1360592
295.010079
289.7361002
290.8365392
292.5726421
308.5731602
308.2543954
307.5285326
310.9419191
314.5382285
296.214785
311.0199156
302.7007497
310.3576892
305.546536
299.6059924
302.7642398
324.6411827
334.5768999
308.9277669
310.2936638
302.2717337
298.6337204
307.5131076
298.7951464
305.6617538
311.0312413
321.4018269
324.1613453
314.5172935
318.1702738
305.6900938
300.4858745
276.880916
290.1831658
290.2346914
293.5416811
288.2320411
286.4096168
291.8386664
293.8244879
299.3041262
307.9512813
303.0637138
301.3651807
284.3149366
280.2722547
275.1874395
275.1484508
280.2483367
279.4071389
273.5252089
278.9363802
307.5755467
297.2150617
298.1095022
304.3054971
295.8621124
286.3991768
275.8263276
298.5588418
327.4009689
322.0444674
311.9540582
304.5950611
302.6983528
300.7865016
298.5618112
301.7882487
296.0641325
290.830429
285.1724875
304.6118165
299.898439
299.4387263
298.9570622
297.518399
293.6424656
315.9675521
311.1336943
299.1689308
307.0459951
312.2521269
324.3646953
315.4520211
307.2646916
298.7681296
293.6966385
283.372586
292.493538
296.6658841
300.2935322
303.8964779
280.9607037
295.4617266
297.6572719
292.8649515
315.2825226
292.1013955
270.817473
294.3547932
301.2311553
297.5806492
290.1062469
284.7636312
307.4150265
303.3360729
297.2663489
294.6962214
308.2922207
305.4550634
284.6435572
283.7410849
303.2317257
307.6189017
311.8110805
310.5151054
321.4339761
316.9514461
316.1328397
315.6553032
303.7653937
310.7540764
306.9157067
290.42713
276.6268796
292.8515916
288.3660582
287.020672
289.7417896
294.1245863
299.6637274
285.6747532
305.1867606
307.3312461
308.5575674
298.8941329
297.8839342
296.245141
284.1333354
291.9531252
306.1972365
312.9993139
324.7840367
323.9004829
297.9042307
299.9216254
310.3154261
324.7782152
312.4885596
303.4707998
310.6725982
322.3225503
300.5923859
300.085124
290.2021669
301.3083101
298.5964032
313.4978253
317.8141351
298.2140298
292.8032233
285.0829157
287.0646601
297.9399652
302.0820483
301.9729137
321.1667163
312.7883818
319.46337
304.246271
297.8642427
287.4336764
302.8609137
308.557022
317.1202282
311.6771703
306.8064334
300.1460472
305.8090598
305.3959967
295.657231
295.3983571
304.5124843
287.0243068
277.0430791
274.9613505
280.9102191
269.7396722
277.1467874
294.7077876
299.3227698
304.6018293
262.6886981
284.8079054
293.3590518
295.0892849
307.700072
320.7682746
321.8150015
302.4325176
302.4236878
288.5051027
284.0566332
279.5703123
292.3499737
282.9709425
276.5456143
273.896004
270.9115402
270.1883681
273.6489817
265.8561175
292.4160853
297.7820472
307.0613967
311.2413888
310.1006797
303.3501856
302.0352142
308.2214983
307.4766337
295.5931547
295.139969
300.6002915
311.8948929
309.2467158
304.7853265
296.3417328
286.8956574
282.2024824
275.0569519
288.0701204
286.8877498
296.9989765
306.2976025
299.1214389
295.5619433
291.9432251
286.5040447
274.5590508
272.6209938
282.6900351
301.8573997
305.8717738
294.6300956
288.4056764
295.4248092
297.8507618
282.3060864
285.4971584
294.881754
307.4936051
312.687264
288.6894392
279.495226
295.731289
293.1490258
293.1667775
308.7307031
312.3063288
318.5656217
319.5548521
315.4083122
305.5097412
318.9415282
307.4021782
309.9136018
300.4142617
306.0074356
307.2943337
313.073425
302.3651195
288.9107441
293.2738725
294.587846
300.9163796
293.6118572
291.3229608
299.4661847
300.1200352
310.4666933
298.6506922
288.615669
283.7010361
303.9848899
289.4081423
298.0884152
311.2906027
298.8275536
293.5844382
281.5991267
285.5589968
286.382159
302.3379527
301.1480197
291.8447412
283.703039
303.2764042
296.095264
298.6133637
313.6917783
310.1592763
315.2545386
320.8947368
297.9727391
300.2215158
285.6770809
284.8369147
273.5723671
286.5944353
277.9731104
290.8463428
279.2179193
279.9752672
287.9946267
302.1485215
304.0608931
298.5187148
302.2085709
290.4985005
306.0339817
304.9652352
304.234793
305.9404804
313.980641
311.0106208
324.8470839
307.7730677
303.3131038
307.6575012
314.0555899
307.1673062
335.7781774
341.3614104
345.5197408
340.0150276
332.7572842
311.3718708
313.8961338
318.0305976
302.1567302
292.6240324
308.32536
319.9443659
318.4567799
314.1785542
299.4635142
308.9202052
307.012343
296.868892
315.5047984
336.917001
286.9924702
279.672802
273.2588417
279.8946034
278.5606957
290.1368462
292.0470009
294.4138681
303.0716548
298.6420591
307.3109238
310.0725048
318.8208036
307.0426897
304.0661751
297.8807265
304.9699289
309.3350877
289.3009564
286.6594776
288.6611146
305.2161274
311.8353164
304.0168017
298.5072775
294.1619085
302.8085682
302.1004708
283.3113217
296.4400578
299.5997374
297.662963
301.1873053
302.6677225
313.046495
306.8838036
298.6304003
289.4680815
287.7215869
275.8732783
277.4114214
283.59513
282.5429751
297.5438572
285.2222883
278.847081
300.0447599
306.0768742
318.2308632
303.045934
305.627315
302.227081
300.1528925
298.1053631
303.3740033
313.5683634
304.2727954
293.0086753
279.9318133
278.5684618
319.4542708
312.9211763
297.7906759
284.0058892
288.5856774
298.9416788
292.6109001
297.7804562
280.3517599
278.3896885
293.4895645
303.588954
317.7041488
320.1864408
318.6064979
327.7078472
330.3678565
334.3838612
334.4568865
334.0618945
332.2227011
320.363273
327.7163136
331.7597562
334.9035367
324.153707
320.762129
314.8436115
317.379929
308.4168236
294.837347
289.3642624
276.2992798
289.8493828
303.1973549
305.6086736
306.9972217
305.4408598
317.8200077
322.1897216
302.9584518
316.7677008
304.7349237
300.071362
303.2481822
297.8576924
304.2691255
301.151056
311.2199051
329.4523469
317.2601515
325.4657276
328.0356391
311.5322329
295.4875807
285.879732
289.9212449
298.0388324
287.4035571
305.3882981
292.7884771
279.6421721
292.0362686
285.6954358
288.4915263
304.7062957
307.130709
306.2155176
301.6324297
286.5334488
291.9148951
288.1513371
295.1202544
300.0146494
314.1038863
314.4423082
321.5846995
325.2185575
311.0004806
288.4480765
306.3614362
300.7487398
312.7633721
296.8384196
301.9547825
292.3570172
292.2335453
288.7421954
302.1052736
291.0125035
295.9108651
310.3802298
326.6423653
326.5945059
305.048688
298.9244168
296.2849628
288.5413172
283.0377761
297.5298033
310.4883846
296.3614641
286.0775432
292.9232611
301.7559616
312.1543163
301.9211822
301.2484531
288.6777954
300.8345392
305.1533403
294.2529148
283.0252482
283.046911
295.1617427
300.8404968
312.5144446
304.978945
312.9478333
316.4915129
296.3643436
300.6214159
291.9476545
295.5230657
284.7866439
295.0086368
297.1163017
283.7289119
290.22986
293.2581036
297.6124763
318.029731
317.8611057
318.7028723
318.3922897
305.9707675
309.5221577
307.2803692
304.2508518
307.2866358
310.176217
305.3351795
297.0969538
296.5968145
310.072657
294.5460369
289.0964263
290.6421062
285.0131065
300.6384558
306.3159816
291.6803542
300.3895832
308.2363783
316.9780139
304.8134111
304.4015503
301.4014025
306.2298138
308.7108442
307.850762
316.9519744
321.1781302
312.9549248
315.6946967
333.2368834
335.4934338
306.8445936
278.8588708
300.1766234
295.7363879
304.8000961
303.576863
301.5632887
289.0575333
281.0033174
286.3280321
305.515992
301.4647184
301.9851464
299.5045256
289.7916074
280.7337391
279.8085706
289.2743769
285.0218165
293.5228437
277.5338055
274.1705753
286.8445412
293.8312403
309.5866314
333.7901314
325.3287069
315.4233809
298.9552369
303.6023502
280.1087768
285.8552022
294.3308865
321.9756901
315.2124402
316.0402313
319.4403776
305.9106527
279.9204047
273.7741782
280.7267233
287.1877856
285.8748471
286.5151008
291.2919455
308.661086
314.7631129
312.0818718
320.6482489
300.7423201
303.1148897
306.8285378
311.6290837
309.1840716
321.9322214
320.8898734
311.5177892
326.9856631
332.0695939
331.3265706
322.8637965
295.2256341
315.984469
311.5246199
312.3877587
304.463002
312.8782777
312.9986557
338.9737167
350.3315525
334.4071821
337.9493884
305.9082555
321.06566
319.0190918
305.9076025
311.1488769
287.573471
291.3507766
291.4425961
291.8332502
294.0229448
294.0629685
296.8794146
294.2046569
285.854918
295.1468846
302.5315032
308.876417
311.2339852
315.1476959
315.9592132
318.5024994
314.1493568
312.028101
340.1036515
337.9494162
338.6969414
329.0612215
318.2818739
312.9135387
316.7013085
291.1938653
292.6746414
301.6486758
297.2958454
321.1936605
324.5753402
298.7445182
320.0434584
307.5112811
319.1106737
307.3512227
311.8625509
305.1211079
292.7864455
299.6860334
317.1840737
301.1376086
298.6272714
298.3076644
282.8151528
300.631112
310.7669663
324.4346627
315.2727304
309.940202
313.4170656
326.8803336
291.7880315
294.1739643
304.4614689
310.9272442
322.3236667
323.9091618
313.2550598
302.1048974
295.6689432
301.078059
293.7209416
291.753203
303.0882479
324.1583643
322.5536714
312.3567613
311.177787
291.7085865
295.1686765
295.8805497
301.6077357
304.8731757
300.5024669
315.1622889
325.985826
304.3620421
298.3681323
296.0864305
292.9162629
287.638633
273.4757624
272.9376748
285.9552784
281.1644537
288.0011006
295.7249035
286.0645042
293.4144027
295.9207773
302.5156818
316.1818369
317.834291
329.3145146
316.1034915
308.7527136
307.758413
300.6766707
297.0355184
285.072961
301.8082628
303.1258338
307.2139522
310.575994
315.6240684
313.9745369
311.1000634
314.8889643
322.3779914
313.7674726
306.5791439
299.8839523
305.6686729
295.9276456
304.8172324
297.9486512
285.9989271
279.8646052
283.74284
291.7893545
280.3659152
280.5891489
279.69122
294.5910917
309.7823325
308.3464119
310.0064032
294.9814224
282.0869392
289.0089628
285.8585282
289.9432187
278.891781
292.2386635
287.3685785
304.1078396
312.3335173
307.1202396
293.0955058
290.6117547
306.1220046
301.0302517
298.162358
294.9761174
295.6973433
300.4224345
308.1743604
315.8899562
311.8337593
303.2970673
319.7846945
316.6501104
319.4607515
318.8920031
305.0786626
318.1625044
321.8753229
330.2164278
332.435119
326.4359833
307.159173
316.2366881
310.8194325
313.6955519
338.3538475
326.4911891
321.961597
315.5934905
307.6371683
302.1390525
298.1323049
297.2125446
300.2028511
301.1871245
310.6536764
319.4029778
310.1630551
314.7320783
318.3443292
314.0213971
313.0647391
318.3294927
315.568169
313.9459113
291.5234466
287.1147766
289.4428937
283.8065991
281.4724092
278.0247201
280.6976041
286.9046436
296.9822214
303.2841495
309.8182589
312.3043213
295.4434257
312.301438
317.8411093
312.5197171
317.6140152
309.1184272
305.1455076
292.6226814
276.4769
279.8529969
287.1690826
290.787441
275.5400737
267.3177916
283.6560833
280.6705966
301.6402156
311.9531067
310.7868097
317.3341701
324.8619056
330.064696
324.7074921
315.5217933
308.2560726
315.9430625
310.9602917
313.7074032
315.1978851
305.0440931
303.0165422
301.8660702
308.4293358
302.8840444
298.8984745
304.5051972
313.4754407
302.2666721
305.4306811
270.6725339
272.8333234
264.3451656
275.375683
264.6471081
296.1309867
294.9995159
317.6127192
327.9420815
318.3908557
327.4085898
312.4737689
292.5868378
285.205062
302.1326675
302.6735833
283.09587
282.7132477
277.2438306
269.9705466
291.723485
284.9363757
283.5400097
287.6768883
295.3360528
301.2691959
300.8172374
296.2465592
285.6429308
296.9903298
302.1629359
303.4888073
282.7664576
292.0960705
299.5982648
304.7977873
303.5918609
296.1303697
291.5120602
277.9838236
314.8777221
300.8634343
297.6161914
285.9102148
300.9283557
295.792403
303.04257
293.0305608
305.9777014
304.4278911
290.2934141
306.9698092
288.6117486
289.4901397
291.7078801
285.7933796
299.1459087
303.721434
296.8524851
304.2660053
317.4258452
304.9688187
297.1368346
301.6921779
289.6706263
293.3431092
284.9228842
311.4060053
305.0788137
307.7542129
321.3044463
319.0160934
310.2352664
296.7057905
304.4216899
312.9918858
332.2072855
324.3037253
324.6303667
324.9484324
323.4840716
324.02552
322.0227975
311.1152855
299.7622255
293.9975137
304.011014
311.8544001
305.6472896
306.5138087
318.3399444
313.0119153
310.2788297
299.7889827
291.8036984
291.4352417
292.6038524
303.980906
313.7559896
332.5173175
303.0084848
312.0288765
293.9991006
314.7436258
305.8521133
311.8248405
318.8612927
318.4488541
308.519121
292.2624146
285.120301
289.2027298
296.3010659
311.37477
319.8636164
328.9165323
349.9563636
341.4371272
329.504799
303.9371449
286.0200291
284.7381528
311.681524
317.7883467
312.952215
308.8712859
302.0808742
285.6882478
297.3784352
296.1036778
281.6160501
288.8122282
299.9145634
303.5190289
274.1297327
288.6374296
292.2298982
290.3258447
283.75816
287.9739909
293.8106182
312.0364703
318.7365112
298.0857038
309.6846606
304.6703253
328.2640741
326.3043408
313.2957475
297.4994961
295.0359915
278.3034393
280.9320099
276.1107872
282.0169029
283.3138823
300.8215694
311.0369206
317.3322842
308.8498283
277.0709754
292.941792
295.3608244
298.1579538
285.3796808
301.923905
297.3809343
303.6620747
297.0800164
302.1667628
312.6287332
330.1236585
321.9553479
321.3435931
311.0326486
299.368849
302.2178474
305.6166147
287.6463573
290.6560938
286.2868733
281.0026112
292.2522823
309.6033444
311.0295024
311.9556778
312.4197228
312.5141932
305.9872079
287.2337789
288.0179105
293.3738542
302.3459433
283.5956018
279.9547207
303.1410628
309.6405971
298.0948853
298.5120049
293.9582379
278.2385844
278.1622214
272.6505142
277.6362728
271.2734379
286.3139436
275.2415526
269.7455945
266.7686164
275.4683666
274.5635651
286.2502417
288.8872749
283.0900838
286.9631083
278.9108947
280.3425636
272.9049543
280.3322614
279.2716923
306.4531901
311.8274887
302.8944116
302.253922
303.1514375
301.3266914
300.3724073
298.4325964
281.125617