/*--------------------------------*- C++ -*----------------------------------*\
| =========                 |                                                 |
| \\      /  F ield         | OpenFOAM: The Open Source CFD Toolbox           |
|  \\    /   O peration     | Version:  2.4.0-MNF                             |
|   \\  /    A nd           | Web:      www.OpenFOAM.org                      |
|    \\/     M anipulation  |                                                 |
\*---------------------------------------------------------------------------*/
FoamFile
{
    version     2.0;
    format      ascii;
    class       volScalarField;
    location    "0.001";
    object      translationalT_mixture;
}
// * * * * * * * * * * * * * * * * * * * * * * * * * * * * * * * * * * * * * //

dimensions      [0 0 0 1 0 0 0];

internalField   nonuniform List<scalar> 
5120
(
316.8018582
303.46366
307.6090304
314.3495297
320.781897
299.4039194
302.4411579
310.7321556
296.1926935
299.2056028
312.2274891
303.018052
313.8007107
321.9483512
324.6585592
319.0240277
311.5221214
311.0579644
305.7198645
306.4747535
305.1122031
302.9503915
313.9129477
323.1521004
315.5529009
314.2268914
320.0774106
325.6161662
299.800651
299.3781821
306.0791622
311.5437232
312.4177434
292.0553715
285.3892531
294.7726883
304.5930201
307.1359749
319.3045044
306.382198
313.7558778
317.0977486
312.9450153
313.7597965
322.7384709
322.6295936
327.5310776
327.3619687
333.909484
328.4010443
327.5421728
323.2429324
312.2890037
306.4158123
314.4137078
316.6884359
307.3311407
320.137979
321.2497387
322.467971
286.7807376
302.5610363
314.9177824
324.9846347
314.0171629
298.3410777
309.5669484
300.0283353
298.7871913
305.6964779
305.6513384
304.8155399
315.2980165
304.5897715
312.9532485
289.4912673
299.0089727
298.6250948
302.3703172
293.9100531
313.9695878
306.0962669
295.5834404
283.9993746
297.0148689
317.1621362
309.4434251
303.7970916
305.8445388
304.0829651
306.9170231
307.7603299
297.1076138
303.3578687
301.0540375
304.9745986
305.0188286
319.3086066
317.423664
316.575747
302.1978866
300.856662
301.1141682
308.8341973
299.2135236
285.7988975
294.2850364
288.2934993
287.3074657
287.0973141
291.6118316
296.9464595
290.6342737
291.1689077
306.0019096
318.6347373
314.2298391
302.0710927
304.7843549
314.8384697
303.0892726
293.7279467
310.2601728
320.3136582
317.147903
302.510336
290.8525191
293.9855784
288.9159982
294.6120455
297.0700359
296.190732
294.7230008
282.6110013
291.5057908
304.3153877
300.2538466
325.2266922
318.0285045
310.6389096
300.6094623
298.3123728
296.9662157
293.8290799
303.5096508
301.9826084
306.284734
294.0032832
297.0079488
308.4632846
307.3856432
301.9656823
304.4614923
301.1564384
304.1630658
305.4226468
312.4550738
291.2588688
298.9944762
295.0233442
291.8828996
283.3317511
270.940502
275.9497207
297.4277876
304.1812113
317.1643164
325.8804043
324.697982
315.0779235
317.0468048
322.5228593
313.3876187
312.5695562
321.6000605
309.8369234
312.8603459
299.8720594
304.2938054
300.0541823
301.7535863
291.7408646
287.1425838
281.19902
293.640137
289.105683
294.3617161
295.8351921
288.7948188
295.2276328
296.6068092
290.0346426
306.4994033
300.5234352
291.2717329
292.5238452
300.888291
293.5336258
286.5367757
281.4851701
300.6503741
302.6656625
301.5210863
284.682035
278.7516597
287.0355657
286.8102681
290.7024518
295.4630938
308.8340553
308.3803156
291.009985
283.3560776
295.1947349
312.8637815
325.8606872
297.6288669
311.3283705
306.2761439
311.129306
306.1665678
300.1879833
291.8221899
286.8842361
297.2264476
291.8555546
292.4247936
299.3704721
298.7988956
285.5956765
280.5495945
284.0521747
283.1713295
286.6817834
301.0827046
297.4131838
305.9307024
296.8780393
296.6285062
303.2318836
284.8098464
294.3558559
303.265815
300.2013796
296.3126745
299.4615003
300.5326321
308.8438873
304.1692309
307.4842594
294.5549204
301.1730434
308.9110075
300.6028471
293.656451
287.1074425
281.2496317
285.3686569
286.2327204
284.6132226
306.4150067
299.3774137
285.9984989
293.7802928
293.1930396
298.2420682
303.9055899
305.8138742
308.3676702
299.2533071
299.0873467
290.5109729
295.103835
296.5165494
294.1082924
299.3232387
303.8694213
302.8118286
286.4451065
297.8968047
321.9799381
320.3545179
299.3596942
286.1166986
306.4608367
290.9583742
282.3758262
283.2997493
295.6225938
303.5331563
290.9548222
291.2238461
290.1605007
296.1113001
303.8729822
295.8695998
301.3579909
306.1804808
311.7300138
308.0238637
300.1631614
312.9943882
309.4322252
315.0687408
307.0368448
306.3740261
298.0003622
304.3938085
313.9094083
300.3950243
300.657194
281.7926358
288.5117887
293.7715738
292.6364734
293.25612
300.3748739
302.4309212
298.2656073
300.8677485
299.8881204
302.0128478
304.7914206
307.0601545
305.6854506
323.8665133
322.1051019
304.2252212
296.8147285
293.7819845
294.6705677
309.6673744
296.9847703
309.1581204
307.1133881
304.9589695
300.7896453
293.1200565
302.4968994
301.3223955
295.1982785
302.7684833
303.0538717
288.7800869
295.5532663
291.4584385
291.9649117
296.755308
304.4162457
312.0120555
301.4508164
301.1412103
303.8945383
294.8322434
299.0378936
306.8837049
311.4792985
309.5854092
310.8804333
303.6633776
292.529202
296.2593822
289.4416576
296.8377291
301.7215574
292.1874424
300.9944427
289.6393351
298.9893893
301.3930646
293.7698235
289.6071882
288.7576271
290.4655702
296.1011395
295.6403599
305.0080195
301.597502
295.2944939
291.8293404
294.6572778
299.9942596
291.5243704
289.3940574
296.9988739
300.0906507
307.2869453
306.637465
292.9715853
286.1076102
280.6070529
278.1227504
286.4274046
288.2932414
287.5251271
287.3358782
273.7858782
279.4024717
281.4085919
287.655039
279.8902987
281.4684346
290.7974896
298.4842349
293.260159
299.2166183
295.6260234
298.6240252
306.2684129
293.2144505
287.9122484
269.1196864
290.8019451
295.1342904
293.7527767
283.9262025
301.5959665
283.1666055
283.5710723
287.8872723
303.1758514
303.5644437
292.52172
290.6069761
296.3787955
283.7703226
274.2423136
276.6297965
298.0764795
311.1992487
310.4113098
305.178024
294.2904219
290.6656825
286.3546301
294.180049
294.9123179
288.8317301
276.3362154
281.9229416
308.7081375
312.0429748
301.7923884
287.415178
283.6395237
298.4142767
305.4891841
300.4217053
295.2971812
299.7861515
290.7030639
306.4738978
325.882
321.0267076
310.4765448
302.1250618
310.7776441
301.0971092
298.5040042
301.7261374
285.808584
306.2916575
309.0106382
318.4164171
313.9443113
312.7546928
306.5628864
313.8632965
319.9211588
307.4100576
319.4649046
318.9037712
303.8733118
305.4941311
314.3568764
313.6723551
304.7461356
309.5939402
289.0474327
282.2297264
305.5919034
288.6854153
310.3043417
312.7107256
304.4828384
293.8021371
317.6896419
300.891301
303.5992612
301.4788718
285.1062167
285.7028418
307.7319965
295.6641626
291.0044619
295.8021626
286.2699076
293.1237522
304.8264373
299.9753663
295.9373756
294.779906
310.3414063
302.5468385
300.961128
301.875193
293.8571104
309.2141494
316.2332681
301.3319237
306.7915061
311.7933211
303.8225069
305.6988148
295.6133208
279.9706553
282.0432125
287.4361895
296.4429992
301.9505048
304.6689481
310.8430834
296.3001249
314.0332079
318.7087329
308.9202314
307.1330596
301.994528
306.5142526
304.0477249
313.6316337
309.7190663
330.9164702
309.0214696
302.7032122
293.5595501
307.3696688
302.1807696
304.1045298
304.055025
301.1562609
294.8801332
287.0127905
277.0831722
282.8630472
292.7361229
305.6536103
293.3080989
299.186168
306.8673697
312.2131303
315.1589929
309.486653
299.1061751
291.8104099
297.907584
300.2560335
305.1947912
295.1671603
300.592621
270.7354324
277.5442563
293.0488121
305.4914974
303.124606
301.2184749
291.1134576
280.8111501
294.0592323
304.14799
301.813527
295.0726422
308.0886122
305.2828105
293.3861939
277.788221
284.8750447
290.330503
281.0632796
270.8692982
305.6742587
301.3574658
297.7736151
295.3051951
295.7093617
311.9452803
307.7703418
302.1360191
291.5923567
287.8503051
306.0362038
310.3952702
293.567364
303.1369478
309.1699612
308.8207924
323.3039796
313.7875989
311.3597798
320.2848832
324.7838971
323.2611192
332.4526034
319.6509093
306.4043919
304.1129132
313.3550596
317.3711744
320.4261911
313.7278326
311.3370942
303.1408268
307.7641745
306.5912983
283.7512953
294.4922002
289.8832065
301.8266432
306.1598686
315.6783081
318.2974641
313.7910738
320.6159567
314.8619891
310.2323029
307.3571692
304.6813272
290.5578025
290.6789959
297.5888546
303.2973302
314.0495191
318.0632866
301.3512217
314.1069754
317.3910973
319.9793715
316.2523637
318.8431115
321.5484983
297.4518863
293.8763284
290.4208654
295.5601241
304.5454269
305.4344268
309.5134519
295.9534233
291.5582655
285.6059043
291.6072421
297.7019583
298.3964926
298.3308136
302.2882726
300.863271
289.0614579
308.7000047
300.9141376
302.2410675
300.821153
308.7452922
327.1148904
311.1232675
317.6807715
320.6832057
325.683052
319.9073828
307.2308326
296.9246293
294.9014986
292.5981552
310.8526736
307.7836429
285.9904405
284.7881371
297.6426492
284.016955
286.0523781
299.9462656
301.3369419
300.5740959
297.6114412
304.1238452
310.7563938
314.7112692
290.1991139
313.1583753
315.182937
301.0695185
302.4386709
299.4260413
301.4282325
303.9992542
323.7275498
306.6917963
292.4832189
277.4613165
294.0086518
287.8969805
283.8229165
284.115964
286.7109287
290.629302
295.8516682
301.5344815
304.413624
299.5433062
295.1520994
303.2504534
306.1749421
306.2486748
300.4387322
309.4633565
311.2868717
313.2008808
326.0403012
319.5801861
306.2790734
302.266584
290.9380556
288.1880448
287.7532157
300.4950931
311.4082913
304.8431012
308.3893115
302.4658548
296.1090432
298.1495221
295.2612503
297.9624194
304.463763
293.7550345
305.6611934
311.3546972
297.5003681
295.6515828
298.5468967
296.0559902
287.4263671
295.0973315
298.5983306
291.4644477
290.1284179
289.3481857
295.8449515
304.8887038
292.131353
281.5076871
287.2423315
293.3286697
291.7715372
292.4197472
285.5910526
273.9798285
275.6672882
286.5653037
290.2959561
287.8054425
315.9567699
296.7993547
291.0280237
301.9775229
303.5380133
295.6679705
287.0928585
285.3137506
292.4165811
284.7762238
293.7384308
290.4209911
288.6292826
295.7715655
289.1637828
312.0266752
304.0500489
302.4426384
307.2924821
303.1494311
283.5509176
287.1142992
288.034801
284.0202557
288.4934975
308.9709926
303.9455329
289.8891902
296.086079
286.9442634
287.154312
293.514169
307.5645329
310.4443661
321.6010055
294.17042
280.822942
279.8672634
276.9279583
282.162199
316.2921617
317.9624566
310.5171496
301.4586039
300.6726781
298.8626747
289.4487506
294.7224013
293.0976372
283.0343846
285.4535814
299.3707126
300.0212596
302.250229
282.7818232
293.7364741
304.1710005
306.8312333
311.1007784
303.6388372
284.4975865
289.6721777
294.5533084
295.8565382
298.2954925
289.0724376
291.6490358
273.4489518
277.652269
291.7827628
286.0065392
276.769131
282.4222269
282.6596693
287.2137207
294.6366368
280.9724106
274.9149892
288.2406843
295.0689677
294.7318628
280.2732464
295.2974775
292.3362154
285.923141
281.7613135
293.319506
292.6475403
286.3894557
293.2599117
293.1665244
288.5654517
286.328412
302.8553293
298.6286284
305.2071537
288.6042614
299.6732529
286.0388691
284.6067874
311.9099554
312.5423581
318.9527015
308.4401443
294.8824381
293.2749188
290.9451357
293.3494697
287.6788205
288.0980649
296.2785733
292.7961251
301.0634534
318.2882988
321.5784105
320.2458213
317.0984067
309.4254606
315.6921559
316.9833535
301.2456491
298.8632369
287.330759
287.1228068
282.2544372
276.7230866
275.9154086
296.9142385
297.4774476
297.0530706
293.0929549
306.5485709
298.5624806
300.9764199
301.8287286
300.9472303
301.8011562
302.35888
296.6934092
294.1243433
287.5460564
286.2059624
288.5889607
304.2137578
297.5791065
293.5798071
290.786965
294.5762205
297.2958696
295.7727734
297.7699402
294.4466694
309.3029761
306.1543863
303.3270491
300.8995703
295.4899515
285.2909165
293.7768869
298.3474567
279.5880199
286.4420224
300.4692353
298.3486776
297.4605865
305.2786859
306.6497391
290.3452546
292.6409654
302.9646428
321.6356534
314.5185722
292.0791805
297.6639639
306.4454074
314.5326793
324.1976317
313.865171
301.1505434
287.276389
299.537981
297.3381541
301.6096695
310.4262853
307.7914103
304.8014572
304.9927669
318.3226338
317.026138
310.3520295
306.3189553
304.8258995
313.2601978
329.9801658
324.7091731
314.5472449
305.9303769
306.6558469
305.5045195
296.2545147
312.0210886
303.8064756
297.8379897
281.8300264
279.7090857
289.0424768
297.4132277
295.5818412
307.2892723
296.5965906
308.544967
323.7166774
318.5988771
310.5409857
306.2087635
304.9023861
317.1108053
324.4415092
332.6776357
321.2971697
298.8042282
315.2467277
296.2775918
309.6345585
300.3444319
301.9307384
295.9144489
300.5382011
311.7193714
327.0771803
314.7966288
309.0383233
304.5716564
291.856837
290.2857479
301.3531529
295.200919
293.5626657
284.5619992
282.6801043
300.5633027
300.9964391
305.7036635
312.2415592
309.8569158
305.8883723
312.7067471
314.1109353
326.555106
317.8836916
318.8328398
306.9562748
304.2764237
306.0193731
302.3754167
294.9911885
290.16905
290.8483425
289.2414136
298.0316319
294.0060462
286.7847108
300.9084726
300.1260016
297.2182245
295.831358
306.0413293
305.8960604
290.1030121
294.3819723
294.1394347
296.347158
299.2441285
297.7311858
290.0093406
296.5779164
319.4903489
310.0891098
302.2124817
276.9268231
295.4780769
306.8811009
303.8904933
309.0570714
301.7002742
307.8082455
301.5052291
301.999893
306.6159586
317.1173315
308.3345763
300.1035698
309.6205549
311.4507284
316.7027251
298.1772191
286.8421834
289.8098066
295.8656205
292.0509384
289.2633029
285.8638257
288.9115198
299.1584527
299.4916874
318.0294445
323.3916878
319.6563257
305.9655869
300.2971056
300.4476289
304.6698217
310.2348383
309.1906022
297.1490276
293.2274144
291.092427
299.1679421
313.50133
303.3272007
305.6325519
307.8648267
299.7604651
285.4374878
288.7853694
300.5650195
316.0714183
303.3386958
311.7346681
310.1672913
303.2342288
315.5594437
300.9899243
297.8591205
296.9879437
292.3708962
312.0422248
314.9441121
313.4219762
318.0599827
276.1705322
288.2347148
299.9670446
293.9847979
307.9081468
304.8833968
300.539358
303.4589001
299.1699067
298.0701195
294.6180302
295.3603968
286.943342
282.6877071
277.5572129
289.2310888
289.9505891
282.6861033
283.6551702
280.0004887
298.3505108
297.4689075
313.2429471
313.8690276
297.4517106
283.7271732
273.3175235
288.2340446
287.150355
307.9498457
313.7588293
297.1087545
293.8540349
307.737981
299.6282914
303.3088912
290.8901482
307.4115376
302.3064663
318.0434821
300.4647704
291.8240245
275.9500226
272.6055429
267.3822038
288.5686918
299.354291
302.1279912
284.5772523
277.4820597
269.5358716
297.7689375
296.3409238
294.3873117
295.9492694
291.3996145
294.0164734
298.7464958
295.856029
299.3785183
313.6713765
310.05079
291.5102173
287.22355
285.2119639
285.984182
270.7379589
282.7790285
296.9295387
308.7709936
306.1118718
299.0421171
301.0707153
299.6967173
304.7610348
292.9456297
302.7058396
282.0829015
295.4473301
305.5162221
278.3206396
294.3293659
305.2796814
304.4444129
296.7027298
305.5850144
304.5777597
308.4378967
310.6165452
306.9872705
304.3969116
287.1147628
288.2677378
295.9353403
309.1952357
303.5632545
314.6268537
320.7546667
303.9392345
295.3714055
289.8337868
289.9873528
299.2657162
300.8194274
302.6308859
310.8203721
321.8599419
305.6960081
309.4084425
297.7828286
300.294939
299.6477071
295.7721364
288.6445059
289.1752394
305.273262
312.0459321
303.3216452
298.8015697
299.9760253
319.4914395
302.7242183
307.9183014
304.7142715
299.3712908
315.8042787
303.0291556
292.8086657
294.2865348
301.0836833
303.9395062
307.0975238
307.2240479
310.7751971
303.3659962
286.1554269
293.1306121
298.2398576
308.2313663
317.223485
304.6698872
307.299512
291.7793756
297.1730422
301.9131762
295.4686604
289.179176
295.7950009
289.3032024
300.8637554
290.1724002
284.5273082
288.3600304
303.7658586
307.6554806
299.1900631
292.4356507
282.0013683
279.5736987
291.0335044
296.5329183
311.3226206
303.9308291
302.9660574
292.7430322
288.2130005
290.1981254
288.1478064
300.4479331
296.1196103
304.8787451
305.3888549
315.6479523
294.0371764
300.4373472
299.021048
305.0538998
309.2720624
302.8908008
296.6197719
295.9719719
296.4151817
294.7751872
295.2200829
277.3057385
269.6460636
276.956227
288.5919421
287.6454354
296.3435111
295.2618544
297.7816875
297.3244923
298.4625712
299.9112484
292.1461047
295.9162298
294.9667894
303.8294984
299.835289
306.1832157
299.5231575
306.4764346
298.7779421
303.8926878
293.649513
308.048756
313.5018052
321.2692079
307.3014094
307.6703109
309.5544047
303.9604351
305.6111957
296.6146446
296.3673905
312.9337757
317.8762391
301.2797995
307.7291321
302.5095713
284.4671837
283.7912793
300.3800316
311.769221
314.6054275
305.2874599
309.9054692
296.4835128
311.4466676
317.8166548
316.2330672
308.2853164
304.72885
314.2118973
314.1143949
306.6830188
308.162941
311.5922589
313.1975109
311.1184704
306.4387058
303.2671988
294.6975267
298.5206655
313.6561578
299.1963027
293.6896612
311.5307827
303.9811658
299.5759912
303.2676018
311.5360544
305.6480551
288.4475279
287.930067
300.5848388
312.7783306
314.6926718
318.2261222
291.505936
306.629354
309.4968855
317.0801628
316.4699141
287.0700577
286.2862621
294.6540915
294.6974811
296.9658317
285.8595905
300.6142848
296.2544618
288.666628
298.4933658
307.3316497
301.8854247
296.0781955
289.0529168
291.1258482
305.348203
309.5170495
313.0932369
313.200048
326.1669936
315.6303191
303.513936
309.0919081
299.9657508
305.0165131
305.8775603
296.2077892
304.9685071
312.9074478
307.7637399
298.8466246
301.1509528
299.3705575
288.2437602
293.7537731
304.6638037
285.6665074
294.4269803
291.5794867
287.4754082
311.7426459
315.4519276
312.5231105
305.2781509
314.760091
309.6029234
301.9940406
306.903161
299.6250544
288.1856941
289.0263646
295.9357115
299.8989606
303.0332726
303.047544
293.1409601
285.2190058
286.2498076
283.3163266
295.3357125
293.9878103
305.2057512
309.3538829
303.1074617
281.2774847
294.8953869
297.8634372
295.6340247
306.0871297
302.1654053
293.9599047
290.9634001
300.8983686
305.3868025
302.7422248
297.7286468
303.9054161
315.4327413
313.3911937
307.2077187
310.8703176
292.921802
292.2786971
292.5113643
289.4134059
288.4421342
287.9570037
305.4300284
301.6335539
303.2989291
311.6807084
320.3530075
303.3375272
300.1489788
295.2492315
273.9055003
283.9434428
286.397939
279.4916971
279.8157818
272.7218497
281.2855182
289.785145
282.5520709
273.4644525
269.1588755
275.0609877
282.5908264
277.7618306
292.7540129
295.285097
292.7150586
288.0042307
280.1470351
271.6535986
300.5197463
292.650307
291.6462101
293.6890703
311.6813619
304.5278885
300.034924
288.9548446
285.6501584
286.8467194
285.4068156
284.4714483
282.5462202
291.145851
287.3126761
300.7817048
317.3434578
322.2796675
313.1539988
297.8010184
309.4245072
309.3074394
286.897218
287.2786119
288.7426583
294.8137295
290.6342874
288.0745775
289.0915422
291.2308265
295.0539457
302.7168051
303.0690722
298.962048
301.5379806
299.3636302
281.1210769
300.5550351
289.7399242
309.1233237
289.3598984
292.7988594
297.5106723
310.7991474
306.5482095
294.7450268
290.0676496
291.9071026
292.6910142
287.9802015
289.0797591
276.3283952
283.5799779
291.153985
282.2325587
286.3025271
304.8303743
303.2499442
297.7631295
282.3744821
304.4091606
305.3000809
312.6645837
303.125122
304.8936371
300.0345663
304.372653
302.2867939
293.1268115
303.679863
283.9361908
296.7713862
287.7385014
290.8036094
293.7428911
295.2302561
291.3027043
299.8414036
304.8776845
308.1820003
290.1291875
292.1828234
290.8630704
288.8205857
286.0513798
293.2653962
296.0238089
293.9384587
298.5077243
286.6746025
307.0817668
308.8619971
298.3090372
282.3925866
280.1545549
298.0254247
303.2824111
284.3731738
291.4326113
294.2204659
294.1165592
282.9012963
293.6775086
309.3454519
301.3911911
310.5023802
303.0742593
309.0644335
291.936361
299.3000138
302.7513027
301.6277727
302.8278635
301.9981212
317.1638439
309.9374139
303.3691777
297.4318208
289.0502368
297.3621193
292.2975474
314.4416663
316.9204393
312.8149615
307.8598318
306.6109089
316.7561785
303.1254139
297.0096462
293.400096
294.2861042
300.7344341
284.6992779
283.4025115
283.6608725
286.4871763
294.1810679
304.954073
303.7064131
296.561422
311.8997162
309.9353046
303.3676039
322.5984267
332.7994658
325.3967547
296.1630141
306.4602664
313.459922
322.9693792
309.601652
300.0668342
286.3924402
288.4871667
299.1503668
299.091351
308.0118206
293.3243568
301.5153108
312.1320763
302.5132856
294.6593375
304.3826023
300.3265616
305.188697
301.8887863
323.744641
321.9409825
316.5775379
294.1250638
306.4249044
309.03735
308.4254002
302.3670212
305.5181007
297.2401666
303.95012
296.8690012
306.9779282
310.6627388
301.0484745
311.809698
310.2854946
290.8155167
295.5400907
305.4684064
308.4509825
308.7063048
290.5510955
297.0963288
310.1729694
297.9663544
301.3982936
309.5699266
314.5231577
321.4315704
303.8280521
300.034786
301.5727873
302.6726561
296.1625433
303.093073
319.0609609
322.4100755
315.802757
322.2698719
312.0466481
290.7600157
289.7903589
303.9051866
306.2929937
296.8175948
310.9887011
308.4349018
297.5308213
299.0783223
304.7477312
295.2046463
284.7463519
290.7727922
300.6857526
298.8953857
292.9531924
294.281029
292.1561306
281.8097343
299.7930137
316.2330368
320.8149766
324.2100728
328.2701956
321.7244637
304.0419562
303.028958
319.6313492
325.2790796
319.887452
310.1014667
307.4051689
304.2388152
275.4845156
280.1621714
277.3014364
288.8377468
300.3818949
306.543729
303.4065254
302.1021882
301.8351299
308.8714259
304.3072254
305.1623645
305.6416369
304.3127765
301.0425935
285.190557
301.1007444
304.6167849
298.6759879
293.1602172
305.4444348
309.0528353
291.0132868
290.0949471
271.2279264
264.3955719
266.5489358
268.9358935
282.2826627
295.6829541
291.108283
298.8357173
295.4997964
306.5489735
291.6728162
299.0598419
287.1553468
291.1527731
279.9090129
299.2515523
296.7843161
296.3873272
294.4511172
290.3482763
290.7729003
289.9752762
296.2864945
289.7627511
296.6724308
293.1565378
289.4021639
285.4010882
286.1291751
290.8775912
299.7560648
288.6566946
297.2365612
303.4804665
315.5097603
306.0868704
302.6612852
311.5838317
298.8501693
301.2981821
289.1439687
292.5170037
296.4296252
291.6848939
289.5258291
292.7875521
298.9936178
291.7456958
297.9478121
288.9172077
279.8413175
279.9693858
282.7742613
286.0438851
285.2094291
304.9502673
284.0815456
294.3610662
293.6461128
285.1205643
291.8835375
291.1818318
285.2291357
284.531187
279.902731
276.1027941
283.0419477
286.7046412
280.2292885
284.8055752
286.6021081
297.5874403
286.9616015
285.5077332
287.2451575
284.4463144
299.8352716
297.9123798
305.5418685
308.1542102
301.1733674
292.6612281
290.090726
294.0886401
289.8354416
293.0918509
295.8027022
291.3935565
286.576178
290.1693171
297.9353328
285.5163986
293.4455278
289.7813827
304.2374153
301.2307766
299.7428843
287.2893613
280.2525734
270.695578
284.2668201
294.7782849
289.8272543
277.4952735
270.4831882
268.2932486
293.7538019
294.0661545
287.7159141
277.7500978
281.4387743
301.9877029
294.9994059
289.9523657
273.1230865
284.4041422
299.5606026
300.8225646
291.2053645
298.4762434
287.2694458
276.4808138
294.1326716
289.8487816
289.7140781
292.6267063
288.6482965
282.7431402
290.3266174
295.278405
287.1539682
282.0231972
291.2034727
294.2931777
291.3203969
299.6634439
320.4706178
330.1779478
310.4187425
304.8305423
307.8200347
314.6660361
305.4799451
287.0125253
287.9911655
292.9379215
290.715246
296.2347066
296.1947583
310.0518844
299.0248535
294.8951536
301.6776923
315.6488677
318.1906055
310.0683547
291.3314914
297.841271
291.5037844
292.7876068
298.6797522
279.5235148
281.4942978
290.9069379
285.7178107
285.3822882
283.1448476
299.5610724
295.0248272
302.2049749
299.9845586
300.4729695
292.4113651
298.1554585
302.0504805
297.0355409
311.9083491
301.6981228
299.6487435
315.2170413
302.4450327
302.6794347
297.5633141
297.7764282
297.8964601
311.1028775
301.1367214
295.6902862
300.062489
302.8430158
302.4763195
317.8105365
309.2302425
303.7622879
312.8895589
317.8614761
310.0524567
314.7335896
310.6079501
297.1851846
304.9825449
298.6937054
314.3765034
313.6295409
309.4648602
295.7503522
285.7471025
288.2906135
300.365355
310.8467872
304.8054138
306.9793303
306.6308754
314.9400559
304.6307129
292.1216022
306.5356668
311.0837195
310.5742177
301.0844206
301.7474876
305.8034041
310.2676224
314.228707
301.6247928
307.3543834
304.62661
304.3621641
300.1330597
306.5360814
308.4868587
312.7218234
314.179137
309.1841046
321.9457621
307.9680745
320.9712827
318.3199492
308.9425614
305.2562395
302.6160556
299.298674
281.7368032
292.577107
309.9026547
302.8953834
297.2478408
290.7580485
308.3676547
316.7295532
329.8332683
309.3613464
314.9729708
318.5016473
312.0382645
320.4110303
307.1920968
305.0922379
290.6284532
292.8644178
291.3867281
295.2710383
312.4627828
309.575939
295.2349546
287.8837541
289.4587905
291.7536261
291.6027736
291.2683656
300.2069051
303.8019224
307.1464778
311.6239816
308.8058369
299.2182572
286.5151776
284.4850642
297.6309214
297.8489612
291.0228367
288.4436215
273.5429306
283.7050059
300.530143
300.6555765
294.6940363
301.5807684
305.9594694
302.9166208
300.1996963
297.078013
294.4068135
294.1540361
297.0565956
299.9492958
282.7923343
284.3309058
275.6984998
274.522635
283.518556
288.4486452
300.1453019
300.6486955
302.7512736
302.0549282
305.8360919
307.8236904
311.5401742
304.4116913
286.5722622
285.6446723
293.02161
297.4268159
285.2510637
283.6192123
269.8668416
267.7006437
276.901711
260.3506361
265.591416
277.8004514
278.5435758
293.1139001
299.9982904
293.2825432
287.7794312
278.183518
275.976741
274.9370199
291.6605526
276.277671
274.0675175
282.6026975
276.612042
281.9679906
281.7396445
273.564887
278.0585233
287.6875605
299.692158
292.1849583
289.3833115
279.7110212
274.9153271
274.149068
278.4981828
286.1937114
282.9895341
284.8888842
293.897796
293.9144578
284.6119608
278.3589149
270.2830214
279.5959065
309.5878275
308.2917401
309.611376
311.6629137
303.7823773
301.9751124
300.2043907
298.2155338
296.198167
291.5335542
296.0890773
298.7978114
301.8381682
305.2926366
290.6283838
284.0584527
293.9774661
294.2433716
300.6126986
297.2402686
299.8226833
306.0112495
301.6181471
314.0384165
315.6006616
309.4245658
313.234677
305.0930051
299.545189
301.1162181
299.3019691
301.6342247
309.3646782
295.1719951
285.9182719
298.8266491
308.2171747
308.5524933
309.8008148
302.150181
278.4266044
294.2567953
302.6915388
294.4323382
295.1238614
300.1663217
298.8698816
314.0995137
327.6169571
310.4023446
285.5470425
289.7933705
294.5703671
282.7855141
280.034855
281.2538299
287.1489602
279.2731784
291.0031893
283.4562123
301.9243271
284.0064169
285.4562598
292.4923009
294.5065705
295.4290756
293.1109388
299.5571084
292.1229657
294.3971818
280.1105168
288.0196156
285.4997296
284.6871687
280.3425173
284.6712693
298.0003933
298.3891464
284.5670036
296.0392914
312.5701292
307.3894584
292.3662242
293.1517954
300.9999245
295.9722793
287.1638578
280.381958
287.2119088
305.3510439
307.8430805
290.3843074
300.6146084
298.8519392
309.2619169
302.8415401
283.5171678
299.9350762
301.5051285
315.9110586
299.4158561
311.8098849
319.8382095
311.1614858
305.8714004
299.3483151
306.6622365
300.9322233
306.5283489
298.5696377
301.0776059
301.801687
302.7453816
292.5475918
301.2671043
296.8623318
293.8388512
285.2379669
293.8125469
294.5392981
311.8825813
298.7801546
295.1635008
292.2291156
296.5934132
297.2715994
303.5957486
313.4407816
302.9058161
292.5568779
292.9648989
294.1080024
293.0553774
313.0357437
315.8274915
312.7349741
303.0949887
309.1172005
317.2978635
315.1335426
303.0860962
293.4628082
294.0939588
294.0372232
296.2347494
304.4948378
310.4900151
296.5698161
304.984009
308.34314
305.6394026
308.2845446
312.9759501
315.0531197
304.5503735
296.5234382
307.7576745
306.793251
308.399402
308.7448828
296.0273686
297.83285
296.1415828
304.3911537
288.0971504
294.0168827
286.3865038
303.989864
305.7891905
314.4613484
314.5108424
317.7295678
304.7772848
292.4306461
288.3667479
285.606171
276.7065762
270.5958584
274.460992
291.6485412
295.0781841
295.5311479
302.150852
305.9833163
321.4875153
327.817216
315.0067825
313.3384174
317.5586496
308.7507355
294.8756309
315.015548
312.0979284
305.7511744
297.0829906
302.6865484
289.5697602
290.4947427
294.4936152
303.096462
322.3407895
324.3790061
317.9069729
320.5950103
311.1844362
303.4339071
311.3214776
308.7696219
292.9151484
309.4207168
302.2638566
286.1184728
295.3028026
306.6362667
303.225858
307.4647335
310.5428423
304.5903698
299.8358886
318.8385288
304.5150949
290.545142
304.2841529
305.4151877
301.5248467
294.7061002
282.9739566
282.463396
291.6090407
301.0420034
302.5695831
289.3656527
290.2956738
296.6941748
301.6662509
309.9717336
307.0518374
312.751139
319.846633
319.3754292
296.9717507
297.3619631
304.0174356
298.9529678
294.8684759
290.5962934
298.4965835
296.9011508
287.884867
276.925987
294.2423439
301.7473801
296.2425861
300.1584298
292.4224386
297.2949202
298.4924441
296.3632608
297.5520539
296.6630361
290.7372986
295.4898659
287.1023558
279.9529282
288.3718598
295.9050663
294.3857113
301.337094
280.7532816
277.1294155
278.5365006
290.9262076
304.6539781
309.2960036
303.0255085
292.0799566
294.2830273
284.3375996
297.2310813
293.9707067
305.9172754
293.3711574
285.6159863
284.7638623
283.8737153
270.1216119
280.2780045
282.0613856
283.8069145
295.6290719
282.2847361
295.5166053
297.4721847
302.5593802
311.5870697
305.2753189
283.5992427
284.8290316
286.5199307
287.0667172
297.5512381
292.3157218
288.7704278
300.0534656
307.0334992
294.9203715
286.86386
274.297885
281.1851081
284.6752294
287.8224642
293.565187
296.0056841
294.2055854
283.1403536
288.8796137
296.4767721
294.0309818
299.2238954
298.6543085
317.5242957
318.5166019
326.8303578
315.4754895
315.937041
311.6768142
311.1509182
306.3466687
310.0832948
307.5281462
313.831684
312.0924083
292.438581
308.2777969
320.5712065
316.1408819
313.6501809
312.0023693
316.5835775
312.5006119
316.1007961
311.4322182
304.6834444
304.6166121
299.8105771
303.705387
301.0565846