/*--------------------------------*- C++ -*----------------------------------*\
| =========                 |                                                 |
| \\      /  F ield         | OpenFOAM: The Open Source CFD Toolbox           |
|  \\    /   O peration     | Version:  2.4.0-MNF                             |
|   \\  /    A nd           | Web:      www.OpenFOAM.org                      |
|    \\/     M anipulation  |                                                 |
\*---------------------------------------------------------------------------*/
FoamFile
{
    version     2.0;
    format      ascii;
    class       volScalarField;
    location    "0.001";
    object      translationalT_N2;
}
// * * * * * * * * * * * * * * * * * * * * * * * * * * * * * * * * * * * * * //

dimensions      [0 0 0 1 0 0 0];

internalField   nonuniform List<scalar> 
5120
(
324.5676978
303.5945395
294.7842258
307.4150483
320.7112839
303.4210734
308.0001013
309.7915766
303.1415211
297.6512261
308.7906773
301.2547701
313.0572304
317.9660993
315.8400904
320.0573305
311.5547582
311.6966744
309.0800539
308.0870318
302.0682325
306.2829396
317.1180526
328.5055339
323.6082469
312.5069363
322.7622026
333.5425693
307.8140546
303.4965215
309.3651264
314.7871259
308.6423111
295.8305245
286.1250626
297.845003
314.9213451
314.2409214
315.3418434
313.0507039
303.92108
310.323315
311.3053594
311.4340103
323.0425197
326.8389045
323.6047898
325.0467504
333.770462
332.0611212
335.5596557
333.8199196
330.1494962
322.2062482
323.2869182
323.4192242
308.3441304
326.9393355
325.2467938
315.9349318
287.0878755
289.8914798
310.8963689
320.1952594
311.7220158
295.3849347
312.7194716
299.0325426
294.2360171
302.830913
300.4035642
295.6393434
300.4181354
295.921678
308.4399452
287.4304518
303.2697601
303.0394918
302.7216487
294.8898116
315.2712573
307.8479525
300.9242276
292.0011322
308.882729
327.4991434
305.6356749
299.4211807
305.3022209
306.6118177
311.3918959
310.9729548
304.7143322
307.0581184
304.5257372
309.3624717
316.8662804
330.4371347
318.4438865
313.2123727
294.5256529
299.0609117
298.2388965
308.4651694
299.2317322
287.3930831
296.3028179
287.0547446
286.4678075
282.069785
287.7448404
296.1121753
295.0015418
295.078683
301.7194817
315.2987173
313.4382634
301.660377
302.3583528
310.007419
305.414838
298.9865817
313.6988416
323.946866
324.1894208
313.7489191
290.9182199
302.0116419
291.4585082
297.5172698
300.4805926
294.7868405
290.3008075
287.3539702
303.0930474
315.2739835
309.5263014
333.0641818
324.3623169
313.1805505
308.9591806
300.6363586
295.7164737
290.643101
305.9277327
304.9375671
308.3864703
294.7538462
298.3944942
312.2969858
309.9045657
296.3164061
301.2328265
300.1721594
305.8629426
306.9107051
316.5862126
297.0916593
307.3260622
301.0534065
288.9868301
277.1083903
275.9963634
281.0350529
302.1743896
314.5966788
325.6714422
331.2015887
319.5368591
310.5398929
312.9470664
320.9755778
315.6316606
312.9477477
324.3647053
304.6234242
306.4444936
295.3222703
303.8034126
297.4451857
298.9361617
293.2604345
286.301211
270.4628425
287.7244658
288.2665786
294.4602282
293.5880065
287.1935352
293.4936022
297.7589563
292.6832435
317.1110077
303.4142633
293.8204218
296.068064
307.7021973
290.7192544
286.8053851
276.2315577
299.5414288
298.0979258
295.3091661
290.1660866
280.9183682
282.7293971
284.9552036
287.7478762
282.9544439
298.6315491
306.2351576
290.0243145
285.2919124
288.53555
305.7859413
325.3959274
295.6262908
318.7695512
311.6533649
312.8209955
309.0952653
299.4794218
289.2868315
275.589209
295.4365555
287.9463337
283.623033
295.9245964
302.3605727
290.664933
287.925182
289.9538096
285.798217
284.9136432
303.7028705
293.2314719
299.9930813
293.5325966
297.0701022
303.5709812
280.9017785
283.1055728
284.7252533
285.6017597
292.6961171
300.0139574
295.1777987
304.0567883
297.9654021
299.7768705
290.8127197
301.6643147
315.8661303
304.3454985
288.6474911
280.2402827
270.074079
269.4803129
275.7465367
278.6613763
298.4728735
283.7272646
282.1845999
296.9062635
297.1438548
302.4231281
296.7435514
303.6514851
319.0785215
311.4381944
300.8048674
294.2206399
299.0221471
299.9975432
296.2511317
296.7657074
296.8116147
299.8161697
278.8897135
294.1121448
309.5687647
317.3999585
301.1945263
287.364946
315.0387191
298.8917208
284.0350639
273.5909123
284.8836036
310.4155445
300.4454032
295.2090271
292.4048664
290.0959858
298.0315213
292.8537814
298.364313
308.4863128
309.9243019
302.0717937
300.4815844
306.2131208
303.1822588
305.9893385
302.3237857
308.3884745
300.7895363
310.9205034
317.4902089
292.5574998
299.7488653
285.0163021
288.3316685
295.7488941
300.7861827
293.4491656
296.0817016
294.6659241
294.9155395
304.6765263
313.6722091
311.2570233
311.9449915
311.2872482
308.3609792
327.730721
330.6189497
313.2147157
304.1667158
302.9723632
303.6526733
309.9458249
289.2289723
305.0320462
311.5958179
304.7383172
287.5957515
284.5893086
302.2714351
307.4768795
295.6991975
306.5097773
307.0307018
289.4528663
301.8594323
296.7259447
299.268192
301.4290659
304.8359082
317.7023667
306.773924
299.9596941
298.295814
284.9006153
293.4963091
305.5116009
311.80832
307.1567337
309.5117304
293.7311823
289.8300638
300.2618477
285.1546297
300.8988365
310.6893316
301.3146514
312.9394603
295.3142546
303.8306566
306.2914037
289.8621169
287.3451387
286.2886711
285.9240824
291.1199983
286.8221606
298.7994329
295.1101837
291.1843396
287.6166931
288.3555896
290.7759355
283.5917692
296.3813276
298.4096259
302.2577969
315.1526638
313.4320508
298.610282
284.5985852
284.7954374
283.3297368
284.1574584
282.2370712
281.9763308
288.0854666
276.358929
279.8584324
278.4880757
283.7308677
281.6490843
279.2816314
288.8426575
296.7943146
295.2662699
297.3917558
300.4071141
298.7452975
312.8359354
299.9845946
292.0631517
272.8748485
284.847913
291.5123028
292.8035789
283.2800711
299.4102028
280.0050472
287.0319878
294.3559789
306.878247
303.177627
291.9720228
287.487272
286.6938279
277.6454942
265.4384538
275.8393047
299.0509289
305.1976283
306.1277355
305.0419641
291.5129219
288.9450321
284.0357548
284.2701913
282.9125435
280.553164
274.7007401
280.6379535
309.1594147
311.6005781
303.7538917
288.9747246
279.4132512
290.1710955
303.1898971
300.3156706
294.7573509
296.1545179
283.9799331
297.733374
313.4162472
312.5695743
300.1256793
297.3369236
313.8369255
304.2438754
298.0431258
304.9367373
280.3211415
307.935611
311.4924132
323.3289276
316.6728957
312.7386006
305.808182
311.7764122
317.8953026
301.9628912
311.4051251
315.2074249
301.20013
294.0872327
309.9742085
311.4367507
301.8832331
306.3158672
290.0246079
280.7057908
304.1213347
288.0066393
311.3026984
311.4057215
303.595714
293.9970188
317.8948587
299.4660975
295.0388208
293.4390742
273.755319
268.1314552
298.3354896
289.5408476
289.3541382
293.3904542
281.7813237
288.5287442
301.9023436
295.0847599
290.5756746
290.9943738
309.2957752
302.0983109
303.3231495
303.6045641
299.5970298
315.9167738
324.925811
303.5223353
296.9454224
307.422725
301.8350338
296.0104623
286.8354887
272.556516
277.5764792
285.5575604
292.5313533
298.7989124
300.8937999
305.4442212
298.1208542
309.7133912
317.8866387
309.10497
300.2682339
301.9473168
306.2753077
308.9445553
317.0034301
313.4198956
327.0002784
306.7273853
305.2853721
290.3177441
302.6756061
301.8381031
305.1910735
304.8309037
292.1113749
295.8359537
280.9637028
277.2255686
268.6601031
285.8881263
310.3802301
298.8191866
304.7599915
316.2094006
321.0203302
317.2409153
305.5379408
297.5520704
291.3570068
297.8410898
291.0571679
291.1216521
290.7259234
299.2039708
269.2495554
275.7794555
294.2665651
302.836498
297.9930308
297.2458336
291.3683189
279.0189497
289.5462186
299.139249
306.9236333
297.8169544
307.9714835
301.4291857
291.9581758
279.3221484
277.4078339
292.2945061
285.7671194
278.5744206
315.8918641
314.9910099
309.6563741
301.7474044
299.1027518
311.6010079
312.1457568
299.9243688
287.4971885
286.01595
302.4973502
306.4116761
294.6945754
306.1488071
310.8815036
312.2592353
322.2711859
301.5205155
304.9974805
325.3026887
318.4287504
314.4424886
330.7547729
320.4896713
298.5291666
299.1976956
302.7706256
315.9676426
327.3029845
314.5200819
309.2583462
298.9862464
301.9116208
305.8986315
288.6763018
296.7592976
293.0942529
303.2125044
303.3363837
310.598306
312.9019589
311.1051709
311.3704745
309.6275322
307.7788197
308.5450155
315.7115163
305.1619718
302.1283952
299.7139533
308.0607235
317.0484443
327.2397075
309.3228353
313.9687978
320.4623824
325.3194731
319.8578834
311.7501939
315.9966987
289.6599897
285.2545646
282.8882096
294.7756029
304.6076634
304.9846642
312.5666648
295.364472
296.0498029
295.3525166
301.4127656
302.4749769
299.129638
290.2092448
290.8810661
290.4820813
280.9278038
289.4249189
289.9747376
287.1362243
305.639219
317.2871141
337.5326002
318.0508886
316.3496431
320.8090848
321.4747389
321.0093835
308.2561281
297.4602911
296.0307751
294.7609652
317.3491939
314.3930668
282.4757544
281.7044122
294.5453141
288.9549055
293.7818257
307.408185
301.7446869
300.9980629
304.2615749
314.2852074
317.12
325.1861572
291.4351914
310.4479097
315.9143878
296.0162215
287.2296001
297.8483583
302.2071599
303.2459846
325.8385945
314.8745212
294.1217119
274.6706376
290.2878543
284.1119546
281.7085401
282.6316577
289.9563107
294.7915493
302.4730912
304.3595229
312.9337915
311.2518526
300.6355864
310.7244556
310.8166978
294.4955487
292.0100678
307.156235
313.4221726
308.9521188
323.4197221
314.2777999
300.9957412
292.8830156
291.2448168
287.2468035
285.312841
293.1352447
303.2315486
305.575768
306.6882757
305.4847147
300.2995994
299.1906378
295.5830787
307.973463
311.8560739
294.3172673
299.9508482
300.9463962
290.1066242
296.5904994
301.4577439
299.0875257
286.9943965
297.4053697
292.5162427
292.2410651
290.4490669
285.9246513
299.6807914
309.0397725
291.5374255
281.4915783
283.083552
290.6517815
288.7322685
285.3048048
276.3597918
262.1115597
270.8196754
287.6154525
292.6723203
288.9134807
320.7109634
297.6474653
288.2703634
301.6526974
307.404217
301.8524182
284.7598311
276.215562
290.1810092
287.1946118
295.8312824
288.1691406
286.9123844
296.287822
286.4652131
306.2159851
302.009025
304.3289321
304.5071695
306.6792837
287.1414898
288.2931961
291.3491579
280.569931
289.0951387
314.0867773
304.9997378
290.5781072
293.345532
281.9281279
283.7148784
292.743542
315.4866194
321.9662933
325.136032
294.5007434
278.889703
277.7846044
276.9164525
279.0111445
305.1737641
309.1409418
305.8633433
301.1680052
300.6217228
300.6184175
285.5373934
291.3258024
293.5546626
283.8505735
288.0711238
297.5974086
294.2744905
288.3297364
270.7723475
288.6394662
302.4565146
303.1099291
304.4138327
296.9643524
283.8535426
289.0906906
291.8112652
293.276445
297.0200126
285.2825498
285.9062032
272.058622
267.9703976
285.2909427
282.6879524
266.411463
279.4966273
276.0307715
281.8090847
286.5082455
269.8011354
265.9902465
277.1658238
292.2945427
291.551151
277.9675143
298.6372169
297.8051184
291.8829361
283.953825
291.5989651
295.1783739
285.9910667
289.2568841
289.3389003
280.0722592
283.2178237
303.4387214
294.1194997
294.0954323
287.9063112
293.7734179
280.4876763
274.669512
309.4940932
309.0891368
316.8925469
307.2047108
287.2751004
288.6857349
290.5548016
303.4161382
294.861789
291.8783764
297.4394216
294.9307192
298.1825174
312.3576076
319.2048765
318.5504643
326.6586855
311.6745977
315.8403221
303.2788567
300.8252948
297.3069484
287.0503566
287.5516324
278.647966
279.9572029
276.0671235
300.9752114
301.2463475
299.8012583
296.9064973
307.0472233
296.3705143
291.4377551
298.9585651
300.4572419
302.8853779
303.6150583
297.740222
296.2276957
292.7041044
295.3663243
298.9139338
303.8772517
296.7582935
291.7448389
288.4338499
290.0920038
292.2480535
293.5775628
290.4515747
294.4417019
312.2807365
309.2810792
306.1323653
304.1645816
302.9408177
290.2274046
301.2817354
301.6291821
281.6144373
290.5716525
302.4695542
295.3835943
296.1731658
300.8660985
302.019864
287.5700513
287.8697988
309.5918521
322.9782737
320.3243621
290.5616691
296.0826527
306.764159
320.3685395
333.5797667
322.700727
312.1252485
291.8938395
292.5811664
280.3731547
298.7225982
311.3946958
308.3443951
297.7162139
293.9810919
307.1823296
311.769439
310.7848962
308.2497214
307.6094407
318.04235
331.0004634
325.2052946
316.2652975
309.016293
301.8280771
303.1199558
294.384543
319.2947458
307.8214456
293.3420368
273.3868159
275.2635324
283.9129015
297.1736485
294.634158
303.7629654
294.1714333
305.6858738
325.1422361
323.071337
311.1188642
304.5051878
300.384823
313.5505829
335.015959
343.9204012
332.6633669
295.4575158
317.7302954
296.8192462
311.6940788
306.6510607
307.9263364
299.2852775
295.8740224
310.0833986
323.5618869
309.2846554
309.1803572
302.9782664
290.7664911
295.1872919
315.7787441
310.9162351
300.8854072
285.763132
283.1715093
314.1019495
309.6242579
322.097239
324.6585462
313.9814365
309.374881
316.2551308
322.7419881
333.8447992
320.2745595
320.3834939
312.9521126
312.1952154
320.9433095
313.6155097
304.627105
298.7829438
300.8836228
298.958565
311.206392
294.8426589
281.8747547
296.1487417
301.3130852
301.2535756
297.4952898
311.9401449
308.0063051
292.9059262
292.6152087
290.7003515
290.2484608
292.7673406
288.8499135
286.399651
294.6104938
322.0052766
315.5936817
304.6322236
278.0668421
294.9085666
312.0001686
312.5705564
306.0199542
300.7380378
308.3133832
297.3396381
291.4653947
304.443963
320.7483356
314.2810489
296.1667583
304.6234216
311.7860442
317.7597539
307.9035631
289.0089291
289.5882303
295.6550517
291.6803477
287.602946
281.8183889
286.4916247
299.6441705
296.2794345
319.1546447
328.147657
328.0780237
314.2584357
304.7637144
308.4609313
310.6507414
305.8085909
312.7671942
296.4952888
292.1476951
282.9829036
294.6489097
307.9866157
296.1516411
303.6063852
305.440385
299.801404
289.9604554
289.8998874
302.436397
323.4781685
310.8844809
314.754183
309.6270363
298.1161618
309.1127421
299.8566519
292.586203
289.7995362
282.0994698
308.7250948
316.4835414
318.6415402
319.8738621
279.6764893
296.3743138
311.2339553
299.5237072
310.5760686
311.2449279
310.238809
310.7270758
304.5020173
297.835231
286.4458067
292.1028286
279.735799
277.5209186
274.5770337
289.4403131
288.9825773
280.1735802
283.1019104
278.3566149
304.5081424
301.7505996
312.5048602
319.9074821
308.751122
282.1189742
266.7260006
283.899191
284.9014702
308.3327996
316.9779362
297.6940056
291.8740013
307.4785014
297.7412608
301.4840974
289.2653659
305.4128457
305.4712091
326.5018321
305.1841961
296.7801922
281.1925463
272.9973033
265.4928367
288.4094769
291.1854094
289.8210568
276.119043
270.4297954
268.3675068
300.6416167
290.1550273
296.0474367
298.3404612
290.8062836
301.8410419
299.120884
296.8548801
302.4755377
313.8519194
310.0430777
292.2096004
289.135999
289.7384714
288.8206351
275.4663693
288.2159837
303.1491603
318.9704259
321.6187285
304.2997507
303.5620073
301.1448568
302.006864
299.3937789
310.6306063
291.4476403
301.3229039
309.3564683
278.195215
290.6914247
302.8982087
299.9956281
297.6032222
303.3533598
300.1029451
300.6052887
306.0033205
304.9677603
297.291142
286.2517359
290.1482071
297.9208492
307.4248823
300.7018407
320.501697
331.1701972
313.4868977
302.4835578
292.5081964
289.0533462
293.6027722
295.7750964
298.5083849
305.7285534
320.6222306
305.2687962
304.4977145
300.1108695
298.9953598
300.0724829
299.4798116
296.4615102
288.9555583
302.3701892
302.0179437
295.9350698
292.6021304
293.9554342
327.648017
307.2076814
308.5557032
315.004822
307.8984878
317.0198843
301.0213831
292.2477771
297.1031805
299.3090548
297.8360693
297.6687357
301.0677336
307.8649222
302.7997849
291.8671426
291.6254969
299.2245794
307.0032403
324.8887966
303.8745019
299.6561447
284.237591
286.0425207
288.2318667
289.106139
274.6579513
290.2099554
285.4133035
292.9795361
288.7321682
286.0070983
293.141986
309.69511
310.6108771
297.9951404
295.5035957
283.9402804
276.7530487
285.7951537
296.8429549
319.5882315
309.8754492
301.6659225
289.4934731
279.0550112
285.8380079
279.8979388
294.894717
290.6620341
302.4482732
305.08656
319.2219366
292.7131758
299.3391883
299.0699607
306.3014561
307.2778433
301.5198086
298.2643948
300.9219946
304.3766478
304.2268587
301.8927316
281.0570722
271.0466992
277.5837828
289.11318
284.2915173
290.461473
288.2573539
291.2139662
282.1418829
291.6910922
292.4061561
290.7365094
298.0578496
302.6624518
315.0056521
306.563722
310.0231396
297.8442052
310.7111194
307.4891436
308.3705367
299.7490281
311.0337148
313.900033
321.4185562
310.3667176
312.7143491
313.3700752
310.4148161
305.3632049
290.0089848
292.0607997
315.4002397
324.1927396
305.0466536
301.0514318
311.1033356
289.3960171
282.6400121
300.3456968
310.9097312
311.2546853
307.6413867
312.2801021
301.6103062
306.5590122
317.5702354
320.3906908
312.292089
306.0883748
318.9954232
313.4195579
303.6305829
302.52076
314.7835402
315.6663619
299.3150921
300.8972406
299.5980843
296.591233
297.8667062
312.3299581
296.4346452
294.6128775
305.9755959
302.059084
299.9858228
303.0112769
313.275543
300.4827748
285.4229656
278.5862509
298.7566202
313.8010115
308.8239858
312.222661
289.7926179
307.7162186
307.8527699
316.4542012
322.6900376
283.8855604
281.5336688
297.0831374
293.6701438
293.1691834
282.8165312
304.3420001
304.0115571
294.6609192
301.6358101
309.9800606
305.568455
290.2604621
287.5614085
287.9086997
304.8668912
309.2455396
304.8169217
303.9979279
320.2191843
307.6728445
302.9321283
312.9353471
305.5174128
310.1601302
311.3763929
297.2452585
311.6328282
310.7099109
309.9856571
303.4699922
304.5702866
300.5712867
285.7077467
291.357473
299.516603
270.9964371
278.9423427
282.1510775
287.5688497
315.4678137
314.4733783
316.4124687
311.5629835
329.9854034
321.5295007
311.2369929
313.7377319
310.1630013
298.996616
295.7898789
300.1082172
299.8510713
298.7244783
304.8029668
291.0208463
283.5546172
288.8665842
282.5570644
299.0152103
297.4086077
313.2055053
313.3221333
309.3184113
279.1671809
301.4605792
301.7991029
290.5438613
304.9735117
303.5835758
300.3896481
289.4586526
297.7978387
302.5598686
302.3767345
301.3465698
309.6432832
327.1221043
322.539522
313.5103949
319.9166914
298.8062692
296.7327851
287.7409195
291.4880448
284.7901503
289.2367246
309.805995
301.9014074
288.7899505
309.4695214
322.1754511
310.3699796
305.5375568
292.0751421
280.3298473
293.4624264
300.2392527
288.9609983
281.1379885
269.8397579
287.9533446
303.0313659
284.2087285
274.4167834
272.4124785
276.7693096
277.245518
269.8333634
293.4193739
297.6979582
294.0935393
292.2921843
284.8807322
279.7198238
306.8422486
293.6165879
290.3691902
293.9706732
310.0990673
307.070104
299.6035474
287.0978244
280.1190576
281.9805855
279.760599
280.4119901
283.5074299
297.474468
294.1634386
305.9556785
322.4296794
319.0854846
311.8645836
298.1913131
310.4277164
306.5224897
286.6950109
284.0004688
286.2145426
291.3615852
283.4512073
275.1958886
277.5676137
287.0893184
290.5108468
303.5961067
299.168809
294.2275517
302.1327254
302.0809566
275.2770149
296.0143453
283.6689506
303.8828889
283.2453985
288.6305462
290.1246223
303.9650575
300.9773865
287.5938965
289.0724645
293.8750281
290.9389457
283.9171399
285.7988573
276.4151997
284.9689392
282.393828
273.4689554
281.7098028
304.1868538
300.814739
291.2646412
275.7807426
305.9663582
307.8021682
313.8152781
296.4758785
297.7704949
298.5238257
304.1060467
300.1880821
287.5710886
304.5923849
284.451359
289.0834579
284.8976126
293.8074465
291.8336345
292.3850646
289.5161663
298.8908383
305.2498566
309.9355127
290.7287754
294.2832202
292.000162
283.56421
277.8703013
291.4517913
297.1280122
294.8382176
293.5853207
287.3763012
306.515123
307.654008
296.5159024
278.2373655
283.5738562
296.3306465
297.7070821
275.816855
288.8175397
295.1912315
295.954978
285.2204247
293.7461648
310.3977025
298.7534265
300.875158
295.5546959
304.9464592
290.473485
301.7366037
295.4772075
293.4618493
294.5799549
300.8792636
318.0889473
305.460939
294.6660305
286.644913
281.8129541
289.8478473
298.3806773
312.5456853
316.0975377
316.4894245
308.5887339
304.0408078
317.6420119
308.0794872
300.6169967
289.5853839
296.1912623
310.3173437
288.2696939
283.3373776
282.9356255
286.2612529
297.8032203
303.5704885
309.4969251
301.982901
312.7053913
315.5798551
309.2986504
328.372608
342.8652867
328.7036741
292.3755511
304.3776887
314.6348407
321.5758256
309.421848
301.2478811
285.6091172
287.8709635
298.6877955
297.3025072
308.9493436
294.387922
302.4238623
313.1378074
313.8175317
308.030721
315.1728606
313.1511497
314.6040414
303.9248871
333.0474396
324.7937602
315.5409875
298.2647681
310.5086872
312.2702038
310.4173333
303.9164721
310.2601016
305.4432618
314.2550771
308.1072239
311.1046222
315.3879123
297.1937913
309.6901232
314.7892712
293.6688938
295.7006647
305.0778797
312.6102815
310.0343565
293.9795149
300.8941432
311.7684838
292.0487517
296.7558078
313.5350357
316.3228496
322.6236278
305.8101347
304.3656794
306.2169302
303.8207465
292.1877477
293.1659335
300.4754244
321.3499779
318.4030224
325.8425262
323.0546014
288.8872199
293.625259
313.5434909
313.1612201
296.7242848
314.7442214
319.4258375
310.6320778
309.7697108
310.3423009
301.4351642
285.8513833
283.487363
298.2853611
299.4607943
293.8276433
290.7354181
280.9693098
276.7257248
298.6153224
323.8246905
323.08341
323.7615693
328.9402859
325.9560701
312.9577543
314.0693807
327.7268223
334.4185644
322.6078872
322.8835324
312.220022
306.0245467
283.0511411
283.7201057
283.0457377
290.6779798
303.9099128
306.8577735
303.8751851
301.9752189
310.0022192
313.5855242
303.326424
306.4436232
303.6198255
298.3826781
298.9260415
286.2716908
299.0908342
299.8392254
299.3831903
294.6834776
303.6899085
312.8447364
291.1448614
295.4120491
273.9902951
264.5856613
270.1447565
268.6144895
284.2549688
299.5666039
292.7029416
295.6152214
298.6964267
313.6203352
290.9455139
290.3266475
286.1358543
293.6874832
283.8057352
293.1952118
305.1835332
297.7975543
301.2728157
291.0458735
288.1696315
289.0667518
297.4759811
288.709388
300.8399434
303.1103201
296.0763765
284.5690699
287.8014332
298.7227288
315.0135994
298.9599821
303.490193
303.3060158
310.1565415
311.9481962
298.5466211
308.7433745
294.1677756
304.3246506
288.905764
288.3075419
296.7610955
291.9581474
291.1150158
291.373686
297.4939949
287.338657
299.3692193
293.2513376
279.9607091
272.345394
277.2021147
285.731545
281.7422404
301.9324597
288.0350576
299.7573895
300.1371935
286.4739926
294.2974181
294.5322051
288.1574619
281.1349952
275.7288336
271.5894192
279.4657927
285.2238131
279.7896649
287.3974861
288.4534268
298.9423594
288.5228019
292.3152465
295.440058
288.9324848
294.1552042
296.5905136
297.0300159
303.5543932
293.1490408
293.4664956
295.8989162
300.5384861
293.4706666
290.9319142
293.9164509
286.0888347
278.0962264
288.4509832
297.8435502
289.9227706
300.0410758
290.5443146
301.8624843
291.5692737
291.9002635
282.2988295
272.1138926
271.8727508
285.7766759
293.779973
286.8128491
276.4520586
266.3131239
268.8858249
298.0088454
292.960033
290.6548253
285.5065369
287.312623
300.8685545
291.6319925
287.1520255
277.6595685
289.1584879
297.6232116
302.8330753
294.7946698
301.609839
283.889322
266.7555525
284.5717186
280.3976729
287.6616381
289.410516
285.4147365
283.4283852
291.8143735
297.2235912
295.4637671
293.7374572
304.9334198
304.3275116
291.9174276
299.5013042
325.5599576
335.3532516
311.5441604
308.4559564
316.9708003
320.1860216
308.0480813
285.5799798
283.3364089
290.0056813
287.9939024
305.8512384
300.6961265
308.0121842
293.4948077
291.8075091
298.3275118
310.3253337
315.6011372
312.0926333
287.4286661
298.4575164
287.6790427
286.862338
290.9772025
278.336433
273.5829341
279.2720133
273.234664
272.3490922
271.4243309
285.0271836
282.8500384
291.538724
297.0144017
296.2845237
282.1080456
295.1932333
301.3881677
296.0267704
308.5500252
300.6468994
299.2023103
312.7299925
294.6457438
294.9854594
291.2381505
295.244576
292.0883348
307.0769742
295.3872887
294.1180195
303.3756764
306.4960645
305.1832741
319.3875634
322.2206656
311.1111772
311.4870418
308.3831303
308.914214
310.7323775
305.2327722
291.4658495
304.4475507
307.8354488
320.5845925
318.5474917
309.9732082
296.1958182
282.5880576
284.7595912
297.9881564
314.547674
302.4772929
300.4689907
298.3136956
306.9822817
300.8240575
287.5783049
313.6381974
319.2905665
309.8875252
292.2883686
292.4364378
302.5326545
304.8521511
308.0799706
302.8296025
308.5253821
304.1818651
308.8349553
296.5008727
303.6644145
318.6398443
328.5795239
322.8240498
313.6018695
322.6770657
312.9210487
328.7395635
317.8432015
310.353621
306.7774361
302.942598
295.5732927
278.2592068
289.4415391
310.0336629
305.6380943
300.9751379
286.9518825
302.3253476
304.4515579
315.1374754
291.5798535
304.9438942
314.4101528
312.8998999
325.6445468
311.6891815
305.849539
288.9673705
296.0643662
291.7098122
300.0551952
309.1059289
304.0935654
291.3263982
277.4994468
292.7297552
301.8995172
296.9867475
295.250063
303.1097486
293.4773452
299.5837625
306.0273167
305.8747431
303.0886567
281.5406178
283.4118341
292.366135
286.1828696
287.6021551
290.4693626
275.7419855
278.6991089
300.160611
295.4613457
288.269514
303.0258605
306.6110882
302.4467682
305.4713413
302.1020067
301.2374497
295.918442
292.5602971
297.8548787
291.5194922
286.1711114
280.4901553
281.675405
289.9835639
290.095107
299.3447296
298.8729749
299.5393775
304.0294577
316.5549054
317.7381334
315.9203166
314.621178
297.286708
292.0880967
296.1907105
303.2006778
293.9907293
294.691618
269.2596086
269.7216561
280.1001059
254.848708
256.9832907
278.8397899
276.8773743
293.3894016
298.3936996
291.1100586
290.6896065
282.2580194
281.1988117
274.2148118
287.7328858
270.9511878
272.4339148
277.7884094
274.1351035
279.1131492
270.2832095
261.023216
268.3547334
282.4893699
296.4196484
285.4602464
281.2922954
277.3556982
271.8630775
273.5664368
282.3932851
291.4692489
286.2910491
278.9791145
280.8558182
287.6951186
281.4521101
271.5880273
258.163551
269.9615619
308.7952029
311.6852345
311.8705307
307.0208546
294.0574725
299.1981715
296.029872
296.1890016
290.0508982
288.8172931
294.1206541
294.7519562
296.6826085
303.9017074
286.8999848
281.0532718
285.13433
285.3593479
296.4404528
302.549974
297.6061401
307.2787232
299.1709123
313.0442105
316.7712679
308.4752568
313.3595004
302.5801317
302.1565951
304.0800152
287.1205919
291.5702144
299.9915997
287.3892318
270.9127651
288.9014599
304.0483523
304.3870288
306.1299909
300.7724815
271.7066853
286.3885685
300.543433
297.2686247
295.8756934
304.8853522
305.6235712
318.0262453
322.5026666
304.7815478
281.2559996
293.1333732
293.3435336
276.4689989
281.5556804
285.6766131
294.9979679
284.4629719
290.0737977
276.1924439
309.0153636
294.3034476
293.8415082
297.0581237
298.1222989
294.4322064
283.8277718
295.4206373
301.2788835
302.0304523
285.8148919
288.5921061
278.1662202
287.7152239
279.9808224
288.1784158
297.8384793
298.2025045
287.7485608
298.4693761
315.7242795
310.0243869
290.9633592
295.7692835
295.80025
291.7460093
286.2139107
281.6713797
289.9063549
309.649774
307.4655895
289.8514673
303.0544905
301.0845741
307.3136569
303.8329089
288.2202202
308.955149
305.0188228
319.4927714
295.3296857
316.8663142
328.5496822
312.7489796
306.2698851
302.037735
305.4057074
300.3435076
313.5910649
298.609229
307.2348082
306.3125704
308.9500192
289.9805065
292.7534896
289.767385
281.7389385
273.7580203
288.473712
288.8850405
316.781707
292.6304672
283.6096771
281.695851
301.0209041
297.6391773
309.7326225
318.6780931
298.3460255
292.1254169
289.3597984
290.9782681
291.3677835
309.3699934
312.0290156
309.3596003
301.5894773
309.653281
314.5866518
320.0941447
304.1339727
287.3541352
297.9560555
295.7113492
299.5308811
302.2015909
312.9728444
298.7867583
303.6057054
312.2593697
303.5329577
308.1372836
305.5150086
314.8853875
303.4932495
302.5121404
313.2941736
305.0637121
309.830292
309.6579354
297.5491012
300.4725121
293.9241324
305.6251074
291.1282659
299.4915959
290.4097195
299.8024694
301.2306681
314.5109842
314.1161116
318.1559968
310.9581201
301.0482417
295.0561359
294.7853454
280.0976986
272.3834922
273.5612351
293.6740504
292.9682323
295.6485206
296.683949
296.4950806
321.1786429
323.3497842
312.1847536
313.8861725
321.3857339
311.3803289
298.7476009
321.6762641
315.6139456
305.7107568
292.7912891
297.3715285
286.9634979
291.1239699
295.0310661
305.2324189
323.8393041
330.5710387
324.5430444
335.5960659
318.7223679
310.966183
312.9902729
311.2583201
300.7279267
311.5081089
306.2248911
288.5097768
304.9900613
320.5699287
315.0661656
308.3641729
307.765484
300.4556251
295.383219
312.5885438
312.1285847
305.9717814
322.976327
310.6014144
306.9710573
294.6777389
279.9493921
281.6157074
283.2626626
295.4448733
296.104462
287.9070371
296.0126754
302.3991937
310.1556546
320.6748971
321.6861277
325.3479358
332.9347
335.1203826
305.0091251
306.2154075
310.1674623
300.0996518
301.6414424
293.2755515
302.8945879
307.4362254
301.5994942
282.5860912
297.9490042
301.9661172
302.6440919
306.4700853
285.3195748
291.1018818
301.5781073
301.8264829
305.7126615
298.541233
299.6611229
295.4169478
287.2376914
281.3318078
289.72922
296.5723818
292.9739882
302.8415452
283.8072525
275.1806389
275.7063888
290.4254484
305.3216582
309.0107723
309.9262727
301.1337224
300.2678684
289.9998747
300.0633702
294.1018156
310.2660287
288.48881
271.4701348
272.4431206
279.5060424
266.4284902
278.6561587
280.969631
287.9775104
297.6038309
290.9933862
299.7931027
301.6210782
311.5469792
320.1348359
308.2954805
280.954016
281.1365124
282.9039871
288.9258615
299.9668919
294.4609665
291.0751142
302.2775145
305.0762028
294.5484945
286.3722499
269.1797613
280.8928285
287.3717847
286.205513
297.8457012
297.7182691
296.2660443
282.3819542
286.2595438
295.0673051
287.5572689
291.1004452
294.3209921
313.9094873
312.6186076
327.0407311
310.7886522
319.2293391
302.5840463
304.480616
299.0729929
308.8318333
306.1700302
317.0215868
311.7723244
290.6741209
303.2431096
322.3404117
311.4871785
306.2380063
301.3109037
305.6874366
300.2982021
307.414981
296.4339239
296.3433697
309.8347452
306.6527006
311.4522106
307.6408394
296.7252117