/*--------------------------------*- C++ -*----------------------------------*\
| =========                 |                                                 |
| \\      /  F ield         | OpenFOAM: The Open Source CFD Toolbox           |
|  \\    /   O peration     | Version:  2.4.0-MNF                             |
|   \\  /    A nd           | Web:      www.OpenFOAM.org                      |
|    \\/     M anipulation  |                                                 |
\*---------------------------------------------------------------------------*/
FoamFile
{
    version     2.0;
    format      ascii;
    class       volScalarField;
    location    "0.001";
    object      translationalT_O2;
}
// * * * * * * * * * * * * * * * * * * * * * * * * * * * * * * * * * * * * * //

dimensions      [0 0 0 1 0 0 0];

internalField   nonuniform List<scalar> 
5120
(
281.4246289
301.6489501
344.1279688
332.2109046
319.2256975
284.1906006
282.958914
312.5781276
270.9140918
302.7598442
322.5034043
307.3084085
312.9101882
330.8176589
347.1964182
312.3186748
308.7703645
308.3960127
292.3435802
299.9759676
308.8525323
291.970354
301.9206349
300.8379448
285.1624423
314.835302
308.3958362
293.7721556
261.4903719
281.9804799
292.2882919
297.6939002
325.887127
278.0732349
281.309177
283.4393615
273.5324742
284.8696852
328.5232661
283.1342442
336.0049818
334.1407927
314.7972322
317.4332733
320.3584419
304.9870681
338.4345708
329.6800785
327.5965318
311.0097396
301.9429602
291.5248987
260.4843038
257.7586277
287.8784363
297.5479793
302.7454149
294.5678079
306.5673437
338.9922313
284.90504
332.294265
323.1333937
338.2699277
320.5728527
306.7548559
298.6758801
301.4525272
310.241829
313.385449
322.4177786
338.1317817
359.8650546
326.0883022
325.6444317
297.9081082
277.7511298
280.983065
297.877643
288.2307908
307.3925539
294.9844878
277.066154
255.2901977
254.8508742
281.346074
317.1437542
313.9911339
305.7593194
288.110652
280.8853234
290.1366841
266.614081
280.6629789
284.373146
283.9598557
256.821438
273.3650789
309.888755
322.5472537
327.464114
305.4951735
309.5579431
305.9139459
295.5358889
274.0195124
282.6844122
290.0233392
289.7046324
299.9303823
303.540437
297.2439531
273.4424214
275.531799
316.5262474
329.191555
315.9211001
302.5649649
313.2236924
331.41126
293.6733971
276.3621326
298.2555623
308.2090383
288.91933
257.0694846
288.9189075
262.0977791
275.0809819
280.7287257
283.4145941
298.5693161
310.6450735
262.5399886
246.2201851
263.5765513
266.3237619
293.7749102
292.4022615
299.2231686
269.2538395
287.2815689
299.4053904
304.6708502
294.0458308
289.8463867
295.7838124
288.9433673
289.6199048
289.1408064
296.49696
321.0584333
309.7661741
302.5395017
296.1098211
298.669503
294.5593006
267.5440838
268.0830424
274.2660895
300.6983087
301.1090215
254.0979166
258.2646438
276.7266264
261.2940568
285.9027892
308.5501505
337.1028601
328.0948319
331.2216891
326.3507782
304.5270161
310.9695393
311.2009947
324.5226867
331.9531414
310.4973945
302.9783416
306.9804179
309.6909775
278.5969845
288.8808659
315.7906497
310.5078867
290.2737023
289.9896266
296.8906798
290.3610817
297.9411898
289.588919
280.2724209
269.0522226
289.0390658
280.805988
278.1322493
272.4161806
301.7561032
282.9212684
299.2621042
299.5949772
315.1433586
319.6541668
262.4950177
268.7898777
301.0440496
292.2412766
296.0976372
335.6251419
344.0162915
315.0525119
290.9310529
275.7726855
318.3919353
337.3640045
325.8723012
304.5509745
276.1821518
283.9070324
296.6378619
295.9185044
302.0372253
298.0105977
320.1302461
300.199016
300.8997347
321.6194165
309.3664308
284.9800337
268.7735639
255.963508
262.7041829
269.8856096
287.3917468
286.0172778
309.0639893
321.8575082
306.0688515
291.941974
298.52049
293.0646252
337.9300266
367.7730681
348.3300997
308.8841017
296.2369065
316.9577966
319.1870444
319.0544553
332.8076305
304.8841376
298.8418983
283.781487
288.3990706
303.2635637
305.2443706
319.6379303
341.6461372
320.8565786
302.8777278
322.5933355
329.9349235
289.250686
268.4110784
273.3617225
280.391642
325.1364797
308.0880196
269.5741156
253.9234609
290.6759266
276.9582297
278.1533876
284.1523334
284.8135714
304.4171918
324.3346499
311.018333
305.6698849
305.0116744
359.4026817
326.4881621
290.529296
280.5335596
274.5520228
259.1224798
272.5093011
312.021207
326.0815842
276.561471
259.7796547
276.8591051
281.9848617
312.0525446
318.1333861
299.9825032
309.769253
292.3195168
316.2749839
326.0312275
296.2469646
327.0239251
322.8726581
338.7080459
320.2706053
296.4853645
287.8980477
280.5912741
300.4449306
324.4772003
302.5452927
263.6937176
285.8975162
285.9090126
261.5544867
291.9664814
312.747726
325.0679668
306.2292689
286.1475643
257.9775314
271.6941439
280.3916255
293.8541294
296.4281028
310.2659057
294.0842479
274.1258319
270.0221963
261.951197
261.4778944
302.6358055
317.9306891
321.369893
286.01209
302.5962652
336.7598819
320.360096
300.3255509
277.3597485
292.898862
288.4154371
286.5494674
286.1117603
274.7388729
270.9616695
263.7514917
277.5434128
296.9193336
291.7973589
282.0101702
299.0813704
318.2172248
321.6559946
316.4549827
308.3455052
310.1303558
316.1623087
312.3561211
334.3247597
298.5279299
280.4663033
302.3736558
282.213447
264.7094747
263.7340887
267.2775384
273.2989134
284.6019587
285.8187786
304.5642718
296.0334149
294.8946183
303.4008671
311.4472281
324.4131099
325.2887013
325.0737924
308.8009959
301.4234001
312.5073917
324.2386288
319.0433485
261.0939566
288.3887647
286.0669468
271.9807043
278.0951214
272.3690392
289.8905698
262.7125567
258.1375171
291.5031363
308.7094492
304.6446819
275.9795853
259.4920318
275.2445714
289.9947611
300.4855904
268.9016438
280.8755826
293.358066
296.0877899
281.9120303
300.5552728
271.4949185
292.1325174
278.6976296
268.0780785
271.9603633
250.3190139
311.1721106
304.8901999
295.6912253
286.0869873
304.8432805
290.457958
269.9919872
265.0724481
288.8469281
302.0433008
292.4780063
299.5430871
323.4609157
291.0019764
297.741154
277.5112484
291.5967913
328.6471113
321.0708729
303.1503513
302.1610098
295.663656
293.660791
323.0725682
333.5099765
311.7262023
276.4492802
281.6747765
306.7533928
313.0136911
292.7880575
276.0373132
294.3019605
323.9602256
311.919112
298.877835
295.873394
308.2210609
308.9526877
332.6232313
361.0514714
345.2370259
343.9503774
316.1509468
296.9959047
289.6676087
299.1002789
289.3645866
304.8272566
300.208144
297.6464079
301.5848528
304.7153103
311.7214013
304.9569238
317.2757374
320.3664311
322.0115001
344.6488101
326.1485585
307.347174
340.9910828
329.8751362
320.9406136
310.0285531
317.3406906
282.5585743
285.9187344
305.1607823
286.6856969
304.3960471
315.5537977
305.0145805
288.646634
313.0320433
298.5951991
332.9571622
328.9841035
321.9674807
337.7697059
337.3985802
311.6666528
292.9536461
301.4927018
301.5704427
306.4114049
312.0329659
313.3587454
311.6896399
305.973057
312.265249
303.6405664
291.5580065
293.849369
269.4073871
278.2686612
278.915581
289.4047705
341.6776082
326.7241038
308.6440765
340.5930976
324.6371142
304.0801668
292.5917016
291.0781418
308.6175625
310.3659137
317.0265123
331.8951694
289.1591179
328.5966228
319.9416344
307.0646232
326.1206578
298.8803503
302.4801492
285.3379085
300.1001002
295.7401508
343.7444892
315.7403151
291.8957984
303.5246253
323.653588
301.9172988
298.7342508
300.8690517
332.9066963
290.7716879
306.0957476
274.899681
321.7117936
307.5757077
289.5576281
273.635021
278.4365662
270.3230028
273.8667421
304.322154
318.5261879
304.5878591
292.2777732
295.8299436
327.7920682
347.6629359
310.2899795
304.7109656
275.9341825
282.1776065
288.0836256
314.1371644
320.6695752
307.9907906
285.1662482
286.0406645
310.9103483
322.8926543
279.5259019
283.0562164
308.2592439
316.0231386
296.3213782
269.9174075
313.6059568
280.3761695
257.0707027
243.3585684
253.3088297
233.7590218
241.2913414
267.4207088
283.699965
311.1810507
291.036744
307.2368231
303.6555355
292.5044874
316.5948039
325.8296423
283.0476934
280.8165475
297.5253773
295.9226763
325.0431901
352.7314421
329.845021
292.7495732
341.7442728
347.6475064
328.5967996
313.0463527
332.3761179
319.4403128
347.2186297
320.3882129
295.7343404
308.2730256
317.3915769
308.5919748
320.7222725
305.1732362
263.0540409
282.644262
267.7379055
288.8216686
311.5796638
328.8612579
334.9515543
321.1978019
348.5706638
330.9460583
315.5186489
302.0761343
267.718588
242.97288
254.3820517
287.8458582
285.767404
301.9448306
292.0392988
278.1018665
309.1578858
304.3894625
304.1462626
303.3930877
337.5470215
332.6312145
327.9496846
322.8642895
311.369403
296.9063138
298.7910036
305.7022079
300.5682611
295.0999615
277.1672159
253.760179
257.9947282
278.944055
291.8632714
320.5302047
338.6170932
331.6286472
315.2685509
381.2552571
339.8935916
357.8509249
283.4484559
281.4694256
292.1299963
283.9730755
311.8601096
311.3794307
339.867288
315.5325681
301.8613215
293.1827469
288.2822626
281.2968244
288.5562117
286.001745
295.6214323
290.0346442
303.2411647
264.4227731
255.898896
273.2006135
295.8100574
298.9000062
274.5500769
267.8802042
285.5952426
276.2843547
285.2452827
319.0445509
309.8085966
316.2264843
349.7744307
303.3445894
296.7083617
301.456077
313.1739252
278.6406386
285.1991653
283.8870847
299.9132393
295.5708581
285.8262806
288.2467317
271.787413
275.8272458
272.0744129
291.6432884
274.5010153
256.6141278
274.7314648
274.7203863
287.6727411
345.8409868
324.0932403
315.722485
302.6560198
324.446547
332.7362689
335.9368476
320.8224678
322.959801
286.7705557
289.907934
289.875848
322.9853156
336.6289023
300.8392784
312.0748275
287.4068331
279.6272586
289.054066
291.4510935
259.2196234
271.2672586
290.4645598
321.9175135
344.7129983
322.30056
291.2214275
284.138045
279.1854839
285.0846176
285.6450495
316.3503362
288.2164295
287.9684555
298.6682626
280.3874516
289.5515729
294.1445387
281.1764542
301.9427037
300.8327993
301.0992752
314.0260331
314.472199
309.6671999
289.9615042
281.7755136
279.9857099
282.4540239
294.1642327
290.7079532
304.385638
302.7336391
284.1610438
271.7239291
293.1274076
311.4241127
296.5636911
273.92885
285.1673892
293.8410227
292.6792479
291.2852346
296.784904
330.7600728
308.9590529
293.7042618
315.1755121
288.621106
269.6598949
282.3331468
273.6674293
290.4225196
282.8272904
283.2640119
293.3763504
280.8647176
300.984411
303.1736929
296.2222053
294.3895689
272.6376852
265.2661109
306.1630894
290.743065
282.8330518
285.2012966
276.3797197
292.0042323
351.4415702
349.2178862
322.9844289
300.1893411
297.9553426
290.3747706
301.2535294
305.2151068
288.3381071
278.7388645
273.9798948
305.2872587
320.4785823
348.8508702
317.3208959
308.9063388
307.2575271
308.0829249
321.1197976
321.596499
286.6105549
287.8890279
300.9004927
300.7946697
299.9931885
298.3726241
308.5655441
275.4380804
309.1655637
315.2987412
298.584198
317.573451
288.7479251
304.3573177
306.9770038
326.4052103
330.4862401
309.6362723
329.861633
303.7096823
306.8291602
286.107279
274.639705
263.4590233
260.2124308
270.0985327
295.0997573
281.8221597
286.7144345
305.1059746
301.5176983
314.1638274
294.5481225
298.264329
309.4378911
345.9426372
289.0632494
321.8795281
307.1629765
320.2269329
309.3012271
323.0166284
323.5009325
312.4596894
323.4403612
309.0197006
291.3877202
253.9452135
259.9197458
273.1664277
289.5584507
282.5759268
307.9710658
332.5873938
327.4707387
324.5850247
278.2802795
298.3943296
311.3801025
366.1408334
299.6227981
301.1670157
282.6340165
283.7141769
293.8271832
265.7895451
274.5648184
281.8925346
282.3255028
283.5742457
276.4791083
298.8608904
296.4281796
327.6913194
309.248086
298.9280215
296.1055934
296.5085739
287.6033216
283.8519646
267.3134082
254.7422145
251.9407879
301.0345256
298.7977361
299.0429524
296.8615537
309.2713767
313.057797
301.0278806
319.9936472
292.5599443
295.7182741
291.2910144
289.8903049
280.9019029
262.5724889
265.2103426
261.9552135
285.3863718
272.8098788
271.882278
292.6104732
306.5911017
301.2984381
320.7958687
320.2923669
298.8822496
306.6920431
275.047477
314.2917301
287.4739189
296.816211
300.7274683
302.547192
288.3491822
290.8802601
282.0907519
263.3447867
272.0305392
319.9676716
350.0110893
311.1121106
304.8507432
305.691025
326.9478911
342.0082794
352.2436329
334.4256336
308.0347353
294.4416621
290.2040045
285.727441
323.950944
318.0443013
306.49851
293.9230366
321.0513358
312.3951345
301.2372615
284.5569725
288.0387163
311.6855639
310.1042554
293.6179243
305.7544899
292.9670304
298.1342658
318.2116452
303.5330249
314.6646032
318.0724267
304.6224085
307.575743
310.2657298
318.5927651
326.7496301
289.260953
288.8476037
282.3755239
307.9081061
301.9101347
290.6264839
300.0121402
279.4888693
282.0867895
282.4438861
314.2149067
316.3286174
335.276696
328.0159687
307.5655372
308.6072241
294.2532867
271.0788221
250.9711437
237.91262
266.4922765
276.7869289
278.3724235
253.8487096
267.8934336
250.3998366
269.7457644
295.306746
293.3936803
298.1462711
278.3553872
296.6652404
307.5727087
312.3496312
289.6647336
280.1656489
256.5933276
269.4291465
267.8559018
265.2739569
259.808447
256.6822243
257.4446075
289.7040981
302.0974563
315.928016
294.3369366
283.3476087
289.1600404
283.9366047
296.6675495
278.890297
299.455424
305.6521859
316.2887428
319.1175157
323.3525455
296.0944438
297.5046643
309.3253049
286.8610271
292.3291425
270.9083561
296.2542499
288.1215372
274.8473773
315.4322513
304.458014
305.9448971
312.7598894
340.9879456
313.2294745
301.2815078
276.4552484
314.2261161
325.8376065
308.2558134
308.9999817
257.4886727
275.3804238
288.4436401
295.4829614
289.8460783
289.2965419
296.6121726
296.5911517
296.8617202
309.6796977
313.9115607
304.9090775
288.9031615
279.6275441
285.231022
271.0075199
283.8909314
323.3508264
297.5252705
296.91874
296.5575313
313.8088241
309.5453439
323.9890291
329.1154572
309.8823411
315.5845145
298.8431836
265.702943
282.9249011
294.1250758
290.7607459
275.6572998
300.3606573
309.0858165
318.4212995
336.1619164
302.5430107
312.9523518
319.5226278
322.9916287
321.5273937
307.1809341
290.1266856
308.6467715
257.0360266
257.0121867
262.8604431
276.6276331
297.6634734
282.0280423
263.562969
274.3879489
278.5177133
296.8012248
317.129057
295.5179708
305.7193711
299.0915172
286.9168789
287.9316996
291.9746389
289.7526923
282.4072424
283.1091553
278.7987114
283.5654936
314.3858029
291.4726413
257.8604074
287.3674382
292.5478027
302.2111171
294.6553197
303.0787303
299.1825473
284.841859
295.0904931
308.0732876
305.2308272
305.8356163
294.7613931
310.7165983
285.7926542
288.3109752
280.0416116
263.7772375
251.1168492
268.6857278
272.6930652
287.1267716
329.0555884
346.2085576
312.8890587
299.1719218
272.7360562
286.7521607
312.554927
287.7945426
287.8213837
291.5210458
264.4734341
291.4804748
291.6981895
287.1494363
311.1754921
310.033772
286.8003826
280.250792
269.3062629
275.6666727
254.0307951
262.018263
276.1392464
273.8781189
256.9625714
282.2569804
290.1234825
293.3837564
310.2613832
268.0511685
269.9536179
247.1593773
272.6372218
288.1580471
277.1814648
308.0643478
311.7760568
318.0508155
287.4397891
303.6695812
306.6802094
331.2164438
325.7243905
311.9300063
328.681935
286.7971671
278.1984352
283.8594417
312.5860178
311.4405031
289.1343553
277.19044
254.4893394
259.8317334
277.6572186
291.1757812
320.184977
320.3780395
318.0998868
329.7304546
322.2592426
301.0806455
321.9219167
283.0924363
297.1418506
295.9076885
282.2892964
260.2129777
288.2190366
313.9309899
346.5208328
327.0798404
317.4333923
318.8131442
291.6548951
287.5483117
305.3599746
264.7687474
264.056479
310.3016432
309.2123493
294.2940979
282.2358742
308.3219688
329.1586622
343.8266221
325.953133
318.1099262
302.5460493
263.7377107
297.3573892
293.369426
309.7312335
288.9147861
302.8892202
337.8792197
322.3576457
338.0223372
342.5379452
318.5598776
340.621784
314.9451101
305.0922037
328.7245942
292.3051785
277.2186422
263.8169064
272.8365209
292.4091191
300.2152953
279.3177025
271.3995104
289.9149273
310.2338023
293.9895521
278.781233
278.0905135
307.8454534
306.9490254
326.0887451
307.6574382
317.0144107
314.7562356
316.4665776
310.6389465
305.3464705
295.5694191
298.2795613
301.0872934
296.8519745
299.9282804
315.4911572
305.0926213
289.9209141
278.2787454
263.6355216
253.8343851
269.4915159
261.5832427
258.59355
269.141221
280.4014136
296.2815787
316.2321623
317.5617427
320.0489254
344.7307835
316.8583643
319.5657679
293.0635714
285.5651461
263.1679197
263.5626046
275.8574
293.0436039
304.0123357
292.6673924
268.8735884
288.7700443
272.9270378
297.6406329
311.1349114
319.5269072
295.9104584
291.7439778
294.4116171
280.7184453
301.3149972
314.106038
308.8654178
303.2981966
294.4401289
288.0838037
325.9889541
271.5032979
265.6436658
285.4138327
296.7212399
312.8181804
323.4370548
296.3412071
301.3308574
277.7418847
320.6658377
315.1965989
298.8150394
292.2712183
296.3556958
292.6808562
310.1483559
316.9810144
324.9558957
299.086769
302.8696172
355.0578267
327.0297836
316.2328927
285.4741706
296.6169225
313.5379826
304.5105843
286.0613901
326.5458151
309.6192731
292.669832
301.8787995
300.3841875
325.1645387
299.2102854
320.3170524
304.9958725
307.3112929
332.1411907
342.8670636
296.3739716
300.4944211
313.2648213
316.0435747
284.8655494
298.1905121
302.5443043
283.8825644
297.9490319
311.0278647
296.1756751
283.5556873
263.1231077
265.6160931
286.374007
297.020958
287.8525213
316.859232
292.3704888
299.9050753
306.8266821
309.42562
344.0443015
345.946633
345.2510679
339.1950762
302.2584545
293.4161569
276.3333053
285.8654666
285.4575274
291.6688904
276.4986138
319.006073
297.054338
279.5223894
287.6583178
293.4247299
296.3291206
301.3746491
319.4619619
326.6298622
327.803997
318.4195548
284.8423546
299.2682128
316.8910815
299.7434445
283.9699582
262.9221405
271.1992135
272.6646962
280.5900189
262.4908063
252.9684586
266.125083
283.3596442
296.4982132
310.3722315
292.8885703
297.0083967
287.2379225
272.8902301
285.420089
280.2193979
279.8180789
277.2235042
294.3749979
279.713764
287.5656202
271.0498437
283.5293739
310.8879184
305.4787247
294.9280428
268.5526147
295.6762241
309.0550685
314.1318609
301.2069566
286.0624858
284.5434932
277.8141569
278.3714528
284.0000155
275.4781845
268.6211303
276.1809109
304.5735966
282.0762718
296.9892508
278.6121381
284.8170581
297.1249599
337.9145376
312.0748621
312.6931909
280.9778922
283.3427563
302.3739682
248.1051727
241.8485582
224.0882425
241.4732379
271.2117546
280.0026727
259.8445154
245.0358193
268.8119567
264.4101769
251.0534954
267.0092732
295.6622071
295.0194654
283.913121
283.733093
287.9317029
271.8601271
261.9161435
244.2744847
273.3421659
288.5832972
293.7566209
291.080367
316.0056973
295.1630484
300.0638937
294.0019276
298.6361986
299.4568399
300.2239965
291.117763
276.4682631
264.6004143
261.0013213
280.7807228
298.0380712
333.5030295
316.4174732
295.7842471
303.7762338
319.3585146
280.1827793
296.7931711
297.1790294
305.3472865
315.6350561
330.1940682
333.282295
301.1397413
312.6368484
297.4286231
316.9770355
315.8121597
297.9244608
287.5537323
302.2475339
316.0068876
308.3986868
321.3922922
310.9257018
306.0749427
323.1261272
332.8518166
325.7149399
317.7808871
290.0996867
280.4386888
299.1158445
302.0588865
298.8960072
275.2501026
276.0025771
323.0411245
311.8176415
300.8500373
299.628041
310.5585814
318.0013924
306.5278704
296.6208598
289.2378242
306.0383774
327.9301173
329.5298203
304.9218515
301.9318703
306.1448597
309.5313339
299.3650609
280.8411677
325.6432307
297.7624304
277.1763444
300.9792886
304.3596716
295.7039003
298.8788127
300.3217435
299.5572481
286.0114793
280.4536509
280.2964059
309.4834898
314.9223838
300.2534178
287.3505861
287.802951
315.0482303
282.6432834
304.1614414
307.2128408
301.2565305
294.8066556
262.2101256
302.2472324
324.8495635
313.0921969
294.0981791
285.6883984
283.4516081
270.2991136
291.2945428
302.6714166
312.0841124
353.2161736
336.5475194
326.0897625
295.6724343
288.2005171
324.3002209
327.2329838
329.4108382
305.2646506
311.8027379
319.9503285
329.8946662
329.1955983
312.8406908
320.1648411
265.0013707
319.2390964
319.04825
297.3874063
303.4914559
314.975096
309.9662138
285.6448324
283.0937101
297.7447576
285.2158719
268.9307705
272.8534657
283.1698789
283.2328269
284.026874
278.7007366
308.9339246
279.3839445
270.7877422
303.0759596
289.0377898
282.5630414
299.5472616
295.5863045
312.7613201
306.6591014
309.7175295
306.8994955
325.9298722
309.7684311
295.8552018
287.3982998
289.5109791
297.5784055
300.0839995
302.9774433
288.8416297
297.6256754
307.7633786
259.6260289
243.5927531
263.8075408
256.1962174
275.1316091
295.4410545
294.2465004
309.2194793
314.3366296
277.6314057
292.6214479
296.3503999
300.7931379
292.8812148
286.7113491
266.6366548
269.0678315
255.9416048
288.3651288
294.8354915
311.2019644
318.2798352
294.500531
280.4645429
293.409851
306.4167476
287.7299855
301.3372762
276.2984699
284.6462705
305.6162022
313.5292145
315.0941539
293.5782383
306.74585
316.8066225
295.6353784
285.5746094
286.0052808
296.6430075
307.4390958
330.8181556
374.6306457
323.4085643
304.6072172
309.4391276
275.0727641
295.291903
275.3225587
268.0917082
285.1444495
296.1331295
299.4418322
273.223785
251.7748171
260.5819123
283.9939946
272.93794
279.3644513
309.894314
307.3802268
296.6364338
288.1630147
304.1672932
329.4693454
297.2980328
301.2940407
283.8645221
310.2361039
323.8419805
323.9777157
307.0929803
273.8548828
263.5184585
292.9232795
294.0559683
310.4371914
269.1701678
291.3386537
297.9746532
252.9044548
268.451236
257.1871663
282.1571761
288.2394547
304.4850123
301.6974711
301.0534562
272.2015848
288.465995
306.1221288
297.1194104
313.6671271
325.7626043
306.6872368
278.2747557
303.8476497
317.0550362
295.905695
287.9194796
309.181103
297.4840678
290.4342099
275.7808798
262.7834167
262.005326
254.3953188
269.1159389
275.3481996
281.4648232
283.1730921
306.945651
282.4851911
280.3449526
292.2849483
325.5589349
287.5858541
275.7220188
262.3356431
317.6084981
272.6209328
292.0444386
273.9254724
286.4209597
298.0155579
289.8670517
290.3415755
290.1093191
278.7260816
250.158441
262.8454075
284.9200024
275.9725597
265.5822306
250.3997243
251.0613661
276.9783247
301.5004506
330.8875388
287.816046
313.8306193
315.916633
309.8942249
284.0416202
289.2410527
307.6694662
292.6887194
288.7527032
281.3094947
295.1688242
302.8312156
304.9318417
292.432735
272.5276678
278.4684337
308.6411777
299.6359023
284.2568508
294.3530598
314.2197739
266.4703719
273.6921272
264.4734041
274.9176201
281.6420725
276.8479226
274.4499817
294.2960003
291.6921039
289.0733862
291.5360285
290.9366924
281.1141921
273.1275763
277.7943483
289.3645355
277.0180631
256.3347591
253.4953798
261.8337435
316.903942
301.6624873
331.7232847
319.7260711
323.971689
289.0771027
269.5027838
262.5118878
273.2871565
297.9367069
301.574292
309.8323693
317.8136634
295.4960959
297.7805047
266.370642
266.2924631
285.2870845
310.4123936
329.7482388
323.3752233
302.2023664
308.068862
263.3451975
274.3688085
294.0238429
298.6335415
280.350921
281.8754536
265.5846098
278.3243406
294.373981
277.6101727
252.4169601
261.5609953
302.4707825
304.9746543
299.0166467
251.5470852
265.0271612
302.5826847
291.9185688
275.2033775
283.5548972
296.5750299
308.6376152
332.0072419
330.7845732
295.9868642
304.9685942
300.1216839
279.0115758
284.4983035
287.6115369
260.7010524
241.56937
248.3194747
263.5823719
289.1266005
298.1314516
298.547481
307.3793839
305.4451719
291.0554883
273.7786692
293.8767264
296.0755814
290.6682102
302.0444784
302.3734828
298.1573834
260.7553708
277.9198462
316.6128296
314.9314211
301.7104398
313.1514133
332.2630761
325.5053659
301.066042
303.4728464
295.4801457
304.3951893
309.0783471
324.6818165
282.6857849
306.5043801
328.5295939
331.6369052
330.8531444
322.8204197
349.5487202
332.4736258
334.1547546
310.2439189
315.2268384
330.5890072
308.1681708
302.8867882
298.5329226
322.3233276
303.8888945
300.0323094
320.9001283
325.6729203
326.1763011
316.156599
305.9591223
320.0063769
324.7989354
323.6397008
297.8115427
277.3682224
282.1360865
289.4308096
310.4222012
259.0518761
275.0982009
316.8197255
349.0908874
310.235763
322.0352193
320.1813655
315.0566566
305.0313994
266.1872759
290.8720189
294.5329619
307.5604464
293.2168055
296.1422672
299.4151847
305.9706603
294.6563999
311.4901578
325.5363919
336.2005549
336.4048015
315.7593923
307.2703712
281.7984408
281.6673808
310.975813
329.0157089
331.1937015
314.8314321
325.9380354
332.6337878
295.1706207
298.8314673
291.5189778
281.1458678
303.5693685
311.3693175
275.5687483
261.74228
286.5279152
295.177161
318.3540087
286.5958623
294.892576
317.1459997
301.6493412
297.9668141
300.6253599
308.9648403
286.4228251
302.3170535
306.8182297
285.4454904
279.2815516
304.0645229
328.3250177
350.5999509
366.1819872
357.8108606
340.3015536
328.9688906
306.551725
303.3037717
284.8070173
299.732383
294.465642
282.8677365
289.2280629
278.8261234
317.7929057
320.8829241
303.7379826
315.3813899
277.9898033
256.7845659
274.108003
279.0682289
291.1518646
335.4586124
331.9262452
328.5440055
318.0376149
282.0793138
304.09033
287.6954164
317.3100128
340.4477074
301.873013
281.593378
265.3774713
298.8400302
300.9502066
316.4661193
311.2895454
292.4176351
301.9488857
301.6473581
278.0437513
276.6120104
266.9089129
287.3777876
312.8262728
305.8713302
251.8764073
276.6454255
257.6418533
249.1852299
258.6977878
281.0641088
298.9609294
304.8204622
313.1347064
295.5199842
271.9967803
277.760791
298.6609614
271.0063217
251.858743
259.9475189
280.7020159
275.4599967
257.0480666
243.0960334
268.6677989
257.7900215
262.3606424
276.4744274
289.9562504
273.9123182
280.025433
291.6305502
304.4705477
299.14589
277.868482
263.670992
256.2786988
276.6512082
304.2417197
292.3225229
278.4079822
297.957676
282.3656759
287.9555024
323.3890394
311.4116372
308.0599469
294.5176458
303.2791025
309.3798557
314.1958985
285.2012645
282.7113214
274.2048063
264.2676832
268.0234369
270.395267
304.931774
333.5814503
313.6321396
289.2800864
300.3137812
308.7213858
315.4513228
311.8032138
293.8016289
298.6780402
326.6276083
332.2831881
306.9180193
311.1795675
302.7826248
318.1538002
299.8173235
301.6026646
313.1244202
320.2027866
309.4330092
303.4136871
293.5053757
317.5771346
321.2040193
312.1584484
273.9496221
303.9930525
297.4296483
308.9529301
315.8102893
310.6073802
311.4847811
309.3531711
306.1805141
288.211689
288.7187989
338.097812
329.7549173
335.2422472
319.8721737
336.5035494
332.9170412
322.5038414
320.9629279
319.482763
303.7041352
299.2306965
316.6725199
307.5326945
282.8951257
290.45115
282.1129331
274.487132
297.228273
347.0672235
331.7172966
300.629701
274.5927161
297.7263441
306.7728255
269.9945427
261.1666285
254.2940506
258.2687653
292.6560529
307.3729078
275.270871
249.2259636
253.2617264
276.4432488
282.098034
297.6867007
319.8358701
312.613533
260.6758549
268.6342712
260.5897504
285.4814062
306.0651238
273.5183003
280.7251649
268.5503382
296.5095816
294.9534471
271.6056237
287.78067
299.1862963
296.4130874
296.9413802
282.9032262
318.7894829
310.2815299
290.0593555
274.9085418
276.9065723
285.1032429
305.8746811
291.8857365
291.5340803
287.5648799
312.5493366
295.9764758
267.5441172
266.641885
285.332981
298.932315
312.631934
290.5184158
280.625757
300.101407
300.7923411
286.0833401
307.3947225
299.6740159
282.8063668
296.9095544
280.6002198
282.0074033
276.2797951
302.0232766
332.2253606
323.4102698
339.9153457
329.3819482
315.7026603
315.3406061
287.2667917
317.983368
331.9603898
325.1860242
275.5908907
289.2224034
273.481431
286.5450937
311.1997113
289.9183719
304.630655
301.9372662
290.8178942
323.152359
329.120551
325.6535573
307.5969858
302.4005173
323.626476
289.5977969
298.5401313
314.3564845
277.1227533
285.4631307
283.1358054
311.9924425
294.8777012
284.1931532
307.8277651
293.4351368
311.1013143
303.5807815
331.4540378
310.2145611
305.5723928
272.1069583
284.8448144
309.5997097
299.9023597
303.0876345
291.0976863
288.7054134
300.740096
294.2679534
271.8610271
268.1473556
271.0266035
315.5098498
310.7708204
305.3548737
304.5530314
310.0783498
278.6152149
262.5506318
265.1107324
253.3003732
259.7006671
256.9705163
274.6554164
281.7222911
301.3767341
293.9946831
318.3309599
331.6000032
318.4430345
333.886042
316.8760988
308.7328418
302.4105499
294.4054767
275.3152136
286.8576608
293.909085
302.7428333
308.7014633
319.2266845
296.1858002
287.1567534
292.4315599
291.4617175
315.3301857
300.5165578
295.3535489
268.7985762
285.099859
276.2972347
302.2691918
298.1727336
266.2644654
302.3289932
285.9635026
276.7199557
264.3634304
259.0120652
260.0282644
301.7802659
318.059531
313.5182009
310.7036388
335.8789062
275.667293
245.242074
244.2520837
289.4796793
283.5893708
294.5336957
293.3420471
284.5976275
322.0047074
319.2928538
324.4977289
294.3051363
266.8658956
274.4189779
269.5315761
269.89234
257.4136331
269.3878859
276.6609303
269.5469353
273.6849017
266.0067667
283.7630372
294.5189298
271.6445388
281.7557766
282.1962384
262.9733236
243.3382413
256.1670703
279.7103475
292.9128454
263.5576626
276.0044147
312.8717954
312.1578592
287.7510479
279.0782229
273.7421147
290.8980512
256.7002376
294.261713
285.4431211
274.9558682
278.4455191
292.4252085
295.3198742
294.7378685
266.2001516
280.3631288
284.8346662
289.2632295
299.3542274
309.0716429
276.8004783
262.8737084
273.6171088
263.8860478
286.3220322
291.5882545
286.8859773
308.6345245
329.4086455
320.9121622
294.5936346
279.6365578
282.7882795
280.9409977
266.9518807
287.5745582
252.7971165
280.1536081
283.4023749
273.0165302
285.3839339
293.1948908
290.2963206
294.6817529
295.1032303
277.8769794
285.4274417
282.2213191
279.1434425
291.276855
312.2006078
296.0294317
287.74734
288.2345229
281.8676035
275.0256096
292.1826251
278.362702
289.5172464
286.4113465
284.8670982
296.4826392
295.6573851
310.4290336
318.669218
307.998895
326.5330435
330.0839975
319.3020346
326.0986532
302.4098494
338.3062086
328.5081507
326.7617857
312.6989484
305.1259175
296.8866689
310.3004124
296.4494991
323.1206565
314.7409464
331.5819379
338.6346533
350.9165007
356.9183237
358.9809292
347.3257794
359.3584174
333.1177251
282.1792859
270.6316438
266.4987437
269.1988171
289.9225405
306.430442
317.7565421