/*--------------------------------*- C++ -*----------------------------------*\
| =========                 |                                                 |
| \\      /  F ield         | OpenFOAM: The Open Source CFD Toolbox           |
|  \\    /   O peration     | Version:  2.4.0-MNF                             |
|   \\  /    A nd           | Web:      www.OpenFOAM.org                      |
|    \\/     M anipulation  |                                                 |
\*---------------------------------------------------------------------------*/
FoamFile
{
    version     2.0;
    format      ascii;
    class       volVectorField;
    location    "0.001";
    object      UMean_O2;
}
// * * * * * * * * * * * * * * * * * * * * * * * * * * * * * * * * * * * * * //

dimensions      [0 1 -1 0 0 0 0];

internalField   nonuniform List<vector> 
5120
(
(2008.558364 -28.14521578 1.931089813)
(2004.151481 -35.35428403 -1.165324653)
(1957.323786 -24.00894522 5.383290843)
(1939.528859 -26.36328936 -17.64218618)
(1931.226054 -4.622706415 -30.9209226)
(1938.167343 -16.70695628 10.30826713)
(1941.14288 -18.58343769 4.917046916)
(1939.201603 -8.859153438 -17.12327659)
(1946.606239 -27.18366608 -4.769812695)
(1974.593042 -24.80327872 33.12935159)
(1949.722904 -4.632881665 48.7065812)
(1918.812877 22.02698323 15.66430894)
(1915.994001 8.065129438 42.05245119)
(1916.304744 -15.3855508 22.82438054)
(1918.537064 -24.3228868 13.43734325)
(1908.628828 8.094602028 -5.573658863)
(1900.905079 -6.392035133 -28.63972303)
(1919.965915 13.85549475 4.798299493)
(1935.227323 -23.24517319 3.499772958)
(1982.171448 1.873855873 3.605327276)
(1912.075396 -13.26393313 -52.15180177)
(1909.820822 12.8936973 -29.58351975)
(1926.240123 -4.378248035 -21.50731644)
(1952.335413 14.16525682 -22.87037232)
(1934.679723 17.49162508 -20.12977293)
(1943.926568 -7.14243071 -46.87232159)
(1951.83881 -10.02431791 -16.34247553)
(1955.597388 -4.213668942 -7.603750233)
(1967.044687 -32.61068308 38.73420284)
(1961.832311 -34.53515205 17.1325465)
(1946.464334 -40.69075034 23.21149017)
(1940.541959 -51.79375488 4.203081953)
(1947.340928 -21.62177436 -27.91679186)
(1954.97022 -17.22186019 -44.52377397)
(1938.52049 -2.932044863 -48.86009426)
(1957.569059 -2.02562093 -51.85180267)
(1963.416269 16.60704996 -39.09852462)
(1964.330794 15.77346245 -22.32315034)
(1926.260216 33.09420718 -22.29823225)
(1911.148948 -15.55527205 -49.67290176)
(1944.616721 61.09468902 25.95632324)
(1937.818828 46.25284939 5.252927613)
(2002.761453 42.36274136 -22.57338441)
(2013.591263 -20.91781275 -15.10758325)
(1978.490489 -19.66594514 10.93255037)
(1963.79285 -27.17095124 35.08370345)
(1966.314265 -47.36202238 27.03750371)
(1993.239144 -48.99879632 18.73509017)
(2006.242514 -75.96380719 10.96075639)
(2008.785896 -49.29413392 -17.38834495)
(1971.052952 -18.98685357 -3.280800052)
(1952.136542 2.044977888 -17.93374661)
(1955.464023 -13.87433897 -30.736697)
(1984.032698 -27.90298884 -18.06188167)
(1958.444788 -27.92006406 -21.46546027)
(1955.866581 -20.02423871 0.9735176871)
(1923.985015 4.697954238 -9.181735536)
(1915.007205 22.06111869 -16.02666618)
(1933.170364 18.75792571 -6.458696599)
(1952.0528 47.04205283 -1.489087278)
(1962.595706 6.400934436 7.026777431)
(1944.048231 36.45122232 4.561670608)
(1918.007105 43.91215316 -0.4180036601)
(1912.927925 40.28569115 6.457144182)
(1906.141109 7.786175184 7.513624218)
(1944.942768 13.37202974 -11.04265428)
(1937.568444 5.637347378 6.49458327)
(1943.692064 -15.39841298 8.413853361)
(1936.300743 -36.97541372 2.87124987)
(1929.437456 -30.98593626 2.052844998)
(1930.471526 -24.57037463 -8.157228087)
(1940.158164 -24.86754595 17.45159019)
(1890.071425 63.46968336 53.8642211)
(1890.082299 40.01579862 79.8375494)
(1905.218294 -0.6493226306 19.17087052)
(1957.891333 -1.839885585 -26.84314014)
(1991.450113 32.95231879 4.244904804)
(1965.170597 -2.258494602 14.01248919)
(1967.658838 38.46773551 28.20155185)
(1982.996196 17.62669833 35.54279963)
(1929.007495 -27.77581332 -4.267923044)
(1934.256629 -54.11092063 -8.812925963)
(1966.900578 -8.069363869 -14.20360112)
(1954.107174 -24.79443468 -17.45642996)
(1939.858791 0.5008534605 13.23304314)
(1917.821024 -15.44188381 -0.6731950728)
(1891.791149 8.585686609 8.974977051)
(1906.62196 -9.337329814 17.59066568)
(1908.775718 -8.487626693 7.877717805)
(1885.891848 -0.8296781194 21.51228023)
(1885.780835 40.05781369 28.62319605)
(1908.069267 23.47852449 6.176693086)
(1895.166277 -8.745147608 -7.207597295)
(1873.108347 -16.83348032 -55.87067322)
(1870.952153 -20.37943154 -59.77477773)
(1862.248279 18.38831173 -38.0875325)
(1874.993064 0.2564477725 -31.33579364)
(1888.181114 -12.32039482 -37.28472755)
(1919.521325 -52.95626061 2.982967578)
(1918.428955 -55.25894883 36.2882776)
(1882.404856 9.391838261 -5.203638291)
(1895.185242 4.294979985 -18.88737984)
(1923.719801 -8.971876349 -24.89204671)
(1917.28675 -10.2345917 -7.859562642)
(1911.34633 -6.10013027 1.650446038)
(1910.511646 -6.017589974 33.48765662)
(1900.691475 23.26545949 -10.10369308)
(1901.545909 -3.745058946 -17.36597164)
(1929.915072 7.555544964 -4.338438241)
(1947.658946 4.568005285 42.59653133)
(1946.826045 12.15452249 36.72289882)
(1946.062702 -9.306245159 11.03188071)
(1970.475557 -4.750676252 22.38052467)
(1966.53281 -19.54476614 43.99103651)
(1968.173653 -47.72786891 13.96252076)
(1957.922024 -19.51894724 -13.8591414)
(1951.072626 -28.47457799 -20.60858611)
(1950.115321 -43.52073951 -3.057986788)
(1926.155496 -3.479343553 -5.882616297)
(1916.91589 -6.622588928 -3.654399454)
(1947.932831 1.39511572 27.72082946)
(1965.152846 12.84142422 23.74236285)
(1930.815234 14.96860072 5.761574207)
(1918.600342 -6.041991544 -8.984613767)
(1914.607174 -24.64898228 -14.41811192)
(1948.641864 -29.26497038 8.873918423)
(1952.855571 -19.2252052 0.7507087296)
(1975.795171 -17.8466073 -5.379371676)
(1966.086184 -36.04162257 -28.68651825)
(1957.150643 -25.94776612 -17.28866231)
(1937.148165 6.554970701 -22.02087045)
(1932.400518 10.34209935 -22.18608833)
(1936.127498 1.514884389 -6.407712057)
(1931.993061 7.461361202 -26.9603672)
(1922.873263 7.285655131 1.367514181)
(1919.797296 -17.02868158 -0.3821662064)
(1922.402534 -30.67089432 -11.80931836)
(1912.240022 3.389853738 -9.144119453)
(1932.351819 16.38408342 -3.34803844)
(1938.672848 8.070665478 35.9379509)
(1970.173574 14.06834963 23.11415275)
(1954.385774 11.99091508 9.711027898)
(1940.894271 14.50601522 -6.51249219)
(1947.857316 43.69517857 6.148841193)
(1972.543027 27.62487617 34.85548963)
(1988.183546 9.450094458 14.72283513)
(1989.846472 -6.599275453 32.23582073)
(1994.46684 -20.15699665 51.82870117)
(1998.542459 10.45444836 5.754616303)
(2002.857833 6.06757152 23.3065967)
(1974.325067 -7.457879136 23.12321661)
(1911.543687 32.248314 10.00421265)
(1869.540778 17.89304106 -0.6284411929)
(1911.96524 18.83423507 3.108705656)
(1924.775697 20.32577643 8.858364461)
(1962.759946 34.61361372 2.589228718)
(1951.067912 14.18042481 1.792650374)
(1971.700282 5.989365331 -40.14967257)
(1960.717785 -3.479455767 -10.60451714)
(1959.657603 -8.978243752 -6.484616696)
(1977.266302 -33.30620745 2.44986359)
(1960.788792 -11.04668833 -10.49321329)
(1954.695443 20.90617784 9.540530455)
(1928.413902 1.511032737 17.91041566)
(1893.393349 45.96254311 19.46192885)
(1906.619712 57.78043773 24.95139731)
(1916.230022 20.63403968 33.63568448)
(1913.98847 22.87525506 20.64125086)
(1904.768074 -21.3310709 12.35561265)
(1925.127325 -14.57063034 -0.262736672)
(1944.509405 -35.75827413 9.585658596)
(1942.48433 -57.95724099 27.7491093)
(1942.891153 -39.98832897 30.83245239)
(1930.468103 -30.49870599 30.44061741)
(1954.718087 -24.6928068 30.81959171)
(1965.953778 -21.24197638 25.90465489)
(1983.116288 -24.14695172 21.81963704)
(1976.874008 -25.83811301 16.99719292)
(1964.979133 -21.80614573 4.520387631)
(1979.199261 -31.54758759 -8.065322329)
(1931.375368 -32.69270442 -21.40003909)
(1942.141618 -30.82212947 -40.35819454)
(1933.0426 -11.0598867 -21.23123955)
(1927.022328 -2.662136317 9.797275667)
(1922.398199 -12.58084928 16.61976033)
(1932.850662 -6.066287746 10.6423113)
(1913.596422 -12.10052063 1.966041665)
(1888.73724 -13.90189857 -21.90246393)
(1913.967238 -17.71088375 -4.58972428)
(1927.090486 -19.9328586 -10.02674821)
(1921.542516 -26.97817698 -12.24948348)
(1943.054428 -4.97171677 2.447676431)
(1950.820773 13.67444263 8.234125729)
(1969.127242 -12.25713464 18.16334943)
(1969.945014 -9.666007574 18.99529639)
(1963.618735 -22.00137327 34.71112229)
(1928.861601 -17.13819352 34.18294813)
(1919.748058 -31.30470927 39.39601941)
(1941.202856 -39.44582834 37.65453638)
(1942.404071 -16.42850697 6.111963097)
(1930.277277 -24.0225862 23.96698099)
(1927.543648 -20.40929954 39.06968419)
(1961.351499 -20.54838497 40.5121427)
(1965.083166 -15.02668687 18.94328331)
(1974.601911 -5.834370392 33.35557897)
(1932.713862 -13.08057959 11.7830939)
(1957.040677 -18.53909331 21.35700038)
(1973.570664 -38.31426197 -7.708920132)
(1925.291439 -7.711655978 -5.445258242)
(1948.786014 22.69202656 35.27045871)
(1933.163521 6.7666187 7.625635701)
(1944.180132 -21.73436082 37.57559162)
(1945.979838 -15.79160972 12.91115897)
(1944.474865 9.430369451 15.96882058)
(1949.62215 23.73778654 -2.755552072)
(1971.157727 2.18050303 -17.98887615)
(1957.685401 -0.05978757309 -23.95915755)
(1969.649007 12.99051799 25.00239171)
(1943.337971 -12.60932647 -7.99453415)
(1916.03348 -57.11855277 8.18854003)
(1946.881825 -4.958915861 -10.08985416)
(1923.653509 -13.83397575 -9.384419942)
(1911.256756 -20.25747723 13.64885372)
(1904.458352 -23.04877335 57.23464214)
(1955.926876 -28.21122402 56.18510428)
(1976.985633 -50.04922811 50.08589793)
(1934.133646 -18.14400526 12.97951773)
(1935.024919 -9.989251333 16.94563625)
(1931.191236 -32.29940479 51.50170155)
(1952.979268 -6.976531173 36.62833495)
(1948.719978 4.239149681 24.0258627)
(1925.486335 4.696621683 -5.918339468)
(1892.486331 -14.36192763 18.05164332)
(1882.582898 2.357983222 -0.07256680118)
(1876.567991 0.4167284682 10.27890824)
(1864.404416 -22.56673991 15.8620182)
(1886.565998 -13.84745004 -17.35908554)
(1926.479075 -27.743423 -6.170206135)
(1941.003288 -34.99682485 -17.04403651)
(1954.160539 -28.96841056 -13.40813318)
(1965.2366 -87.79585322 18.97592328)
(1929.33859 -40.31177779 27.50357476)
(1913.881047 -40.63565848 15.68177174)
(1931.633394 -31.1343983 -15.49410938)
(1922.852515 -11.62226927 5.917135502)
(1917.913295 23.75760931 -7.559990295)
(1909.742655 20.10152502 -9.477669969)
(1894.029394 -10.81405514 -32.37719821)
(1911.390773 -21.68751496 -36.57288837)
(1948.215605 -14.83756435 -25.4044788)
(1971.885244 -54.1393179 -12.63010827)
(1963.79222 -29.70985391 -25.62927376)
(1981.570729 -25.35574421 -43.42447974)
(1953.840092 -18.50031602 -29.59051292)
(1908.768946 -1.536764134 -19.67108218)
(1902.223235 -17.4991263 -3.185180475)
(1917.528338 -21.381872 6.759252563)
(1919.247285 -40.34502728 -33.56649428)
(1938.07018 -76.54632804 -27.27960468)
(1950.141842 -71.51052411 9.073992852)
(1873.571092 -51.15805162 17.32177423)
(1874.326153 -78.33077646 58.74077211)
(1915.816149 -50.61933224 64.68980502)
(1950.611296 -32.52366646 106.2619944)
(1950.971874 11.3749279 54.87144206)
(1936.72408 29.41183549 26.06929028)
(1934.363671 32.87197075 5.512868724)
(1911.754286 28.73733763 7.356549067)
(1930.902813 -12.46240057 9.721679492)
(1964.058616 -16.71546131 22.45368525)
(1960.492993 11.39837767 27.72189808)
(2002.407777 -9.911537145 -4.541562275)
(2017.141121 -34.4067447 -9.233221665)
(1977.036771 -33.32964877 -5.454663551)
(1974.751482 -47.82629841 -2.473781996)
(1977.965628 -64.87180713 -20.2308217)
(1942.610985 -39.8507048 -16.24458277)
(1940.186282 -8.223582632 -14.79079397)
(1912.936062 7.143577719 -17.28732758)
(1875.113574 17.46764851 13.48506105)
(1896.809441 33.89416279 -3.855690872)
(1927.459883 58.03264184 7.202378155)
(1937.271936 26.72999761 -22.94935753)
(1903.804027 -15.19276465 -26.89960538)
(1942.654283 -59.20027686 -11.97921125)
(1968.954173 -43.88871669 6.221660557)
(1980.048182 -41.50413944 -34.65305548)
(1980.067109 -45.89502584 -12.91038739)
(1957.890887 -0.0801744838 20.90202009)
(1965.605549 11.58926165 41.69719124)
(1954.477126 5.704912053 14.10723149)
(1953.881151 8.217421488 12.96268965)
(1936.814986 1.504746638 12.20768711)
(1936.886413 -2.569569472 -9.243406909)
(1931.297081 3.56578793 -9.846518369)
(1920.01896 -25.08868096 5.427104307)
(1935.859773 -22.9925929 0.4522536967)
(1937.544175 -66.05367222 -7.907647513)
(1953.765474 -19.35727549 28.34693184)
(1938.925101 1.91317244 39.36357834)
(1921.473029 7.552186754 -41.21333506)
(1923.233502 8.727116092 -68.33307476)
(1922.247908 19.95864284 -28.15394533)
(1944.275086 15.20296114 -26.89237899)
(1954.427039 -4.56016993 -26.8893244)
(1967.456101 -23.75363072 -40.15631809)
(1951.552471 -9.987838962 -16.43925237)
(1951.501003 -1.143231114 22.39237754)
(1938.182877 -11.8006624 5.346076291)
(1944.382026 -10.36492303 -21.35653399)
(1952.169209 2.210555644 23.09454924)
(1959.047714 -43.98075115 33.97979387)
(1969.747609 -15.03455123 17.1492255)
(1955.956739 -0.9739353542 21.21750354)
(1936.893384 -4.093587678 4.288560121)
(1916.998367 -23.34734091 8.961745178)
(1921.27763 -21.72844299 34.11442215)
(1917.570079 -24.76126949 21.00024958)
(1905.009384 -33.98413325 8.476637244)
(1920.181574 -6.8016645 -33.9153096)
(1941.311032 9.35459031 21.94394905)
(1907.977564 -3.304042916 -13.52966957)
(1927.733479 35.53863096 -3.748866334)
(1945.442562 -10.92676086 -4.541537239)
(1971.939741 -3.872888166 9.206909249)
(1964.199392 -14.5256488 -11.17780396)
(1961.074053 -9.494569325 -30.53569058)
(1959.95834 -15.97728824 -20.29909543)
(1964.798871 -9.552782184 -24.02336026)
(1953.284231 -12.55460761 -30.27907907)
(1934.116932 4.878349213 -31.44815826)
(1906.844442 39.63165658 -26.4216302)
(1901.607479 30.07531981 -13.98232422)
(1897.711597 11.26004854 -23.73400721)
(1894.938267 20.25649147 -13.36743331)
(1900.060748 27.14614793 -17.32693079)
(1911.369738 55.565995 7.450343953)
(1933.964774 11.09884742 -10.24820499)
(1964.781252 29.84301415 -3.970961282)
(1949.073334 21.60076738 38.42714402)
(1952.177608 -8.98291795 -29.71878087)
(1940.2872 -11.54583857 -24.84520913)
(1936.949505 -2.869138241 -29.64270486)
(1923.51751 12.00715982 14.16312713)
(1936.554857 23.95438534 -4.222362531)
(1915.903972 29.16495424 25.21937772)
(1902.078012 56.61064902 19.91875735)
(1899.357811 80.41340927 4.743573594)
(1908.085911 89.21328824 -7.426693052)
(1917.212423 53.30882191 -32.38372546)
(1953.378159 53.3316436 -49.29814972)
(1963.109392 46.07615061 -59.13802722)
(1952.25725 28.07660444 -45.41631883)
(1950.168768 2.480394057 -49.59649361)
(1947.168471 14.88903662 -47.32559604)
(1951.298367 -14.3687763 -34.55298947)
(1963.274435 14.84192117 -45.79522786)
(1930.309745 36.93979823 -51.91220693)
(1940.034423 21.99280517 -64.57016764)
(1957.481563 -11.81898642 -69.8057493)
(1972.865607 48.28007338 -6.506109232)
(1964.524607 0.2725533726 6.706529465)
(1953.393734 1.638532036 15.49476136)
(1949.483104 -3.581457703 -31.53333032)
(1940.817819 -17.14631844 -58.04163549)
(1958.272935 20.1525019 -38.16131762)
(1950.915432 13.15842814 -1.021637896)
(1947.582223 20.54017655 -7.462461713)
(1936.294601 13.49862226 -14.2853436)
(1952.500859 17.5972514 -5.687192264)
(1952.191296 27.19328519 -30.33956676)
(1941.601562 15.83751701 -42.85414658)
(1943.411162 29.23223699 -31.71777848)
(1948.622133 32.14984332 -22.00034044)
(1943.515433 27.49171855 -10.46841441)
(1938.813986 44.70434684 3.769848506)
(1964.924734 33.53514664 13.58025571)
(1946.457424 25.21302805 12.54096119)
(1953.882791 28.48086237 -3.91684696)
(1988.462548 52.29815498 5.853379521)
(1951.711108 4.204410277 -43.04510931)
(1970.621784 -13.7064209 -54.22732913)
(1970.358197 -12.20248477 -24.33756324)
(1999.04251 2.685596708 15.49589324)
(1960.074241 -18.65775355 31.74941997)
(1957.564606 -47.81887672 33.42309135)
(1940.838017 -44.59386025 7.522990664)
(1953.000644 -26.04919963 -20.52617771)
(1955.92856 3.544682432 -2.183460701)
(1940.754742 23.42998019 3.628201985)
(1964.210112 23.41875729 15.02077406)
(1962.241786 39.19537246 3.447849309)
(1961.70761 54.35648017 -3.819992987)
(1966.847674 34.39520794 2.394400034)
(1982.711197 66.09331181 42.50231191)
(1995.478896 62.52383844 52.27371496)
(1999.145793 40.81624393 21.88426794)
(1980.38617 51.41292084 23.13310638)
(1984.988784 28.99370631 -28.07693068)
(1947.459758 1.115095106 -27.29578299)
(1949.397849 24.97837585 37.54336014)
(1954.155398 39.13296487 48.84794606)
(1962.393506 28.25215019 27.02405239)
(1979.618095 34.61367231 16.95570269)
(1974.767349 32.7648827 -11.54934394)
(1986.04932 2.737148975 12.8463148)
(1987.352729 25.03595186 26.37830877)
(1979.178545 78.43079509 9.575993675)
(1934.669916 61.7248755 44.39346014)
(1929.491482 52.73126215 20.30145334)
(1946.423301 21.06795189 10.016193)
(1935.070379 55.85824767 4.853239797)
(1923.91899 32.21212539 -12.79563163)
(1938.61663 34.02479536 -15.29430531)
(1924.227983 23.75603314 3.431058289)
(1938.108127 6.770565231 -4.861181925)
(1948.401896 17.29702191 25.12801516)
(1958.103627 29.0172788 1.033800684)
(1945.056779 35.79274521 2.854380274)
(1950.625671 28.20363772 -17.50989487)
(1946.453789 5.787253984 -23.83297237)
(1961.435969 11.06299859 -37.78930124)
(1956.108696 28.99659348 -3.983084024)
(1955.864834 31.05172102 1.117113597)
(1977.113932 52.17619981 -22.97352904)
(1961.185466 104.5748565 -31.64204601)
(1928.605483 57.09104834 7.570813046)
(1910.148043 37.61149098 3.706347774)
(1894.686005 54.16754434 0.9034252967)
(1887.137569 24.78224529 18.08930529)
(1880.126947 5.479808488 10.79511114)
(1903.066281 9.093309015 21.43082013)
(1911.276877 -14.05792154 6.294388265)
(1915.046159 -7.265374695 -11.972647)
(1929.542311 18.54018488 -11.6912465)
(1949.291374 43.77912524 1.469852294)
(1950.258259 44.72399775 -28.07725498)
(1969.08802 42.42345352 -56.16969753)
(1962.565972 31.27937023 -47.14979859)
(1976.675827 -9.463426125 -21.93481688)
(1969.42028 24.85695406 4.037028685)
(1967.690796 -3.624305144 20.1214683)
(1974.418684 3.216545381 42.48208525)
(1984.364461 13.59930832 55.94358728)
(1981.970608 0.2145862093 47.33998222)
(1917.163141 0.0275680773 24.61809428)
(1933.61076 17.09621691 9.949221357)
(1951.707749 10.00711668 24.81191658)
(1961.632347 17.94204159 23.50824526)
(1962.900915 46.95477997 -20.79504771)
(1967.315637 53.84535399 -21.02031336)
(1950.068826 35.88418675 -16.38195419)
(1906.387534 43.36342052 0.6209336003)
(1911.483091 48.79529393 -11.90435229)
(1947.113438 31.47933898 -24.03768711)
(1926.392346 -2.332802049 -60.69728178)
(1890.226853 -3.536293466 -22.47911295)
(1912.431308 16.45514422 -14.14280019)
(1953.111729 8.135558878 -7.849375213)
(1949.586425 33.34958532 -18.86583349)
(1984.047672 -2.475450958 1.17512776)
(1964.627586 -2.067201117 21.88694667)
(1969.690418 -3.344579057 42.08473952)
(1975.043542 7.139002812 3.703530965)
(1968.93903 -18.78814888 25.89041265)
(1983.851373 -27.24705503 17.94247591)
(1990.242883 -27.1177849 14.43070808)
(1949.47742 -18.63396737 25.67547354)
(1960.943626 -21.03507823 53.40178936)
(1989.003235 -19.27925079 48.64970847)
(2001.154134 -15.18734844 28.1096743)
(2020.520621 -7.698936099 6.928675554)
(2033.302854 24.02386519 -0.3916043701)
(2012.491108 43.71823509 26.34159214)
(1977.089675 27.96052804 -22.3532852)
(1974.330313 6.296242165 13.08607277)
(1984.685725 32.88626591 1.481570034)
(2001.25675 23.01546251 13.85223434)
(1981.367079 29.19949724 17.94661999)
(1970.996992 -12.07277153 44.97618605)
(1908.648279 -37.88572898 6.58815767)
(1941.598498 -40.72334338 18.09741368)
(1951.015335 -44.1256428 6.092821567)
(1934.909439 -36.18739244 21.31797263)
(1934.453536 -53.93059781 17.50215999)
(1954.700205 -49.87200232 -27.53148394)
(1971.944083 -56.5345834 -8.236592473)
(1997.264277 -42.45810988 4.006905656)
(1974.922477 -28.0562557 -6.846921819)
(1961.578576 17.79073399 3.199329814)
(1983.518012 32.67437704 -1.902855539)
(1980.388376 22.10282433 -12.49187635)
(1982.064318 3.642468282 -9.968374266)
(2000.396626 -20.01488773 7.955575134)
(1976.600847 -41.53697078 13.76025031)
(1978.578968 5.302532369 14.50764502)
(1955.563048 7.711672588 18.67378329)
(1934.149135 33.70174212 45.70559736)
(1915.897864 29.98168153 64.41230075)
(1901.633645 -0.9034941307 42.12796156)
(1935.643572 -16.85932824 20.715398)
(1888.68255 -2.402088263 19.03836166)
(1891.927559 -17.54803387 17.34066503)
(1931.110387 -15.1880631 16.76694813)
(1930.819826 -6.909428531 -4.870658051)
(1926.951687 -10.78416489 -12.89277882)
(1925.575205 -29.19276869 -6.520175452)
(1942.207295 -34.48129948 1.992729029)
(1940.941741 -40.6363649 -0.1947774245)
(1928.581971 -48.95601856 -0.3843617174)
(1916.244525 -38.5018479 8.841872085)
(1907.3129 -20.6702733 -14.84500466)
(1911.539433 -28.36990908 15.85359808)
(1904.548949 5.528542316 2.078697218)
(1937.071861 11.39533776 1.869662124)
(1956.326245 -5.145237404 16.51904354)
(1953.448078 -31.98517741 13.95691287)
(1931.167359 -30.37346196 21.42577243)
(1922.631749 5.91109612 -1.746338136)
(1919.6188 -18.27277951 -2.574026253)
(1956.275495 13.93850259 -5.947984264)
(1953.717369 -15.38042387 21.68976968)
(1961.530318 1.902562271 -2.277946725)
(1938.635033 30.33511749 14.03909815)
(1970.539685 9.513850507 -0.848926162)
(1960.279397 -6.92067484 -2.812782301)
(1964.172497 -43.95570743 -19.5884062)
(1958.911431 -37.20904775 14.38514628)
(1961.904857 -39.04459977 23.91113887)
(1945.22118 -21.9235904 21.04470633)
(1933.816453 -0.8844229943 36.2280612)
(1929.769127 11.89552009 40.01796681)
(1923.201983 34.46878049 -3.627295961)
(1918.503356 42.70931726 -16.66343833)
(1940.114195 22.33377699 -21.03594341)
(1933.102597 19.29140709 -23.0618497)
(1913.43142 14.27844242 -2.110146815)
(1919.665487 -21.71224229 -3.335713251)
(1927.148966 -37.8826109 -5.629529151)
(1937.665217 -14.24065217 0.493911587)
(1929.768929 2.22677572 -18.24735062)
(1943.022216 0.4965266136 17.65966168)
(1917.903749 11.49055624 32.71972212)
(1926.931666 -8.611290593 6.884848249)
(1898.679289 16.5671614 33.54235092)
(1903.82074 6.189983936 33.49737969)
(1932.832118 -5.840738775 -0.964903724)
(1937.5393 17.3987544 0.9129653151)
(1922.463599 -23.9062919 -7.280233483)
(1904.751953 -2.635046487 0.6205803715)
(1887.609964 -3.768127575 -10.97015472)
(1903.510003 0.2017570441 24.29706198)
(1881.089796 13.668544 25.64620072)
(1929.994655 4.062559094 -1.730151833)
(1935.171197 -10.72399185 -18.40164511)
(1961.140121 -17.35003729 -32.10471352)
(1969.262162 -18.48244584 -47.65436684)
(1948.473029 -17.63151744 -35.69408626)
(1949.050737 1.724175329 -22.59543122)
(1940.169551 -3.522181929 -26.87567205)
(1937.491943 -8.985276223 4.483847323)
(1917.050446 -20.65508562 -1.431929692)
(1928.395029 23.47982926 -1.343835365)
(1955.634473 27.4015743 10.48198265)
(1932.901111 -19.57035713 -0.1923982926)
(1889.520894 -7.367626765 9.51499591)
(1892.052963 7.098345843 28.17953921)
(1940.833213 28.46469604 -15.78770617)
(1938.46452 25.35861484 -16.10076924)
(1912.548204 5.618024439 -0.460346439)
(1949.866405 -27.75738847 -2.340785016)
(1934.862156 -39.2782286 5.778660259)
(1934.478493 -12.41881659 -6.56910769)
(1949.475771 -10.65081651 -39.97034037)
(1967.53754 -6.059486257 -38.34273077)
(1986.694422 -7.200500266 -10.27916786)
(1941.774865 -1.238043133 4.63037844)
(1928.539689 5.78452962 44.01406122)
(1941.937366 -0.193755334 78.88354181)
(1941.695312 -5.101806496 47.52445587)
(1966.958883 -34.03002768 -35.75997665)
(2003.4645 32.10203122 -15.39739827)
(1974.475178 49.42930003 -7.326369972)
(1952.701218 47.55153906 -21.04950788)
(1947.743553 46.4861517 -32.81864392)
(1944.188935 42.61538473 -33.18523027)
(1914.52635 42.260488 -33.29177538)
(1925.929233 9.820552633 -19.25501821)
(1952.591314 -16.5791648 -23.41575683)
(1965.998611 -1.689869258 -27.53914852)
(1932.861928 6.942001832 -25.74419527)
(1936.25061 1.801606123 3.73663577)
(1907.216684 -57.91780399 -15.88248367)
(1897.440409 -68.80104985 -17.11738131)
(1907.342774 -49.28709423 18.58630419)
(1943.319341 -14.40538847 8.176150243)
(1961.454521 -41.46301511 -4.630149717)
(1934.020832 -25.0099269 -18.13203188)
(1930.541955 -53.32518101 -47.49185372)
(1981.141274 -34.35646388 -23.47078202)
(1932.755514 62.85654182 26.0970397)
(1885.174694 8.96400077 25.67291607)
(1880.057086 -9.871004845 39.27556881)
(1893.10491 -2.774869377 20.8360283)
(1897.958941 -23.77676082 3.170833934)
(1912.029711 19.94098826 -18.31833167)
(1930.935911 15.53816293 -17.39400636)
(1954.389455 26.69253858 -29.38520667)
(1924.765538 30.38469068 -40.79197072)
(1925.079691 3.093769047 -38.2447376)
(1935.912017 -24.48436254 -0.7534046661)
(1913.383735 -23.29818092 44.31060265)
(1905.688203 18.3948329 6.721890937)
(1921.825258 10.25554917 3.644342309)
(1937.637499 0.5153339085 -2.53726187)
(1924.059197 -11.31644929 24.89453205)
(1897.810416 5.453076329 38.52354572)
(1900.982143 6.008192258 39.07584311)
(1902.973919 48.0403741 2.26799938)
(1919.625897 60.85062065 -10.56357129)
(1932.462367 -5.502421516 13.22236553)
(1925.217995 -4.68228154 -1.045583539)
(1946.028864 -14.49811622 -3.129623583)
(1957.563015 -7.709833874 -0.1270666326)
(1930.219147 -44.86948012 -4.241593974)
(1944.445403 -35.27574594 14.20160525)
(1938.605586 -27.36673319 -10.87786289)
(1940.102347 -24.99792723 -67.41512196)
(1959.080112 -50.86369662 -42.34177178)
(1941.053575 -55.10753754 -36.45985727)
(1950.384788 -39.64394025 -30.24446529)
(1959.027394 -17.79092436 -33.49651178)
(1949.696089 11.81675488 -6.218725491)
(1947.932966 23.62328257 7.456134748)
(1924.87468 58.43462569 30.33492779)
(1906.340374 35.50004056 25.56100661)
(1930.36435 8.181756223 11.24426893)
(1903.468834 -4.255255633 -6.516047432)
(1927.54074 -7.962364176 -11.15777806)
(1920.132805 -28.62282872 -28.03625749)
(1974.993578 -12.00646758 -5.978648033)
(1987.211138 17.17983303 0.05872332584)
(1961.737938 -2.245932484 0.2093562861)
(1924.278715 -0.6060337691 -12.54577126)
(1928.343948 1.823220741 -43.56064215)
(1942.399097 19.69086866 -12.20414055)
(1944.892798 22.11935577 3.107011817)
(1936.686804 16.30234781 -25.58414667)
(1927.841017 -14.846088 -28.84082788)
(1943.445403 4.741326732 -18.00888261)
(1934.645958 8.4176941 -1.949435752)
(1921.038388 19.23123836 22.00368255)
(1904.578917 9.27107737 17.01106608)
(1930.901691 -28.16051427 4.664507637)
(1946.089645 -6.528081018 -52.33519407)
(1956.656273 -29.81116045 -82.04222958)
(1955.165383 -20.50493524 -63.92953045)
(1949.078052 20.72951446 -55.48547269)
(1941.61212 -18.24849417 -19.49890218)
(1955.290522 -3.434898586 -22.09532384)
(1914.156775 2.283976263 -7.800172763)
(1933.281121 -2.128349951 10.4907241)
(1962.172883 -24.79727231 27.27676113)
(1953.87191 -25.32600677 40.80519351)
(1936.300921 25.0685674 93.36567317)
(1913.243788 -17.62942415 61.83081241)
(1920.979819 17.31876136 14.62236867)
(1958.119305 15.85651945 12.71837197)
(1976.517971 21.02990621 2.49072617)
(1962.644894 15.1013463 -10.37373038)
(1953.815653 -7.41579678 -34.63774215)
(1929.655456 -37.1823579 -49.18959243)
(1958.965356 -35.44705401 -26.93591661)
(1947.145692 -29.6856351 -16.221467)
(1949.205143 -22.7377078 -5.35647551)
(1917.61383 4.746149394 -41.69507988)
(1932.362446 -29.11195745 -81.12457248)
(1951.871253 -33.59279076 -27.51488204)
(1961.909972 -18.14102666 -20.02569262)
(1922.592546 5.567807558 -14.25599217)
(1953.942827 -36.06718996 -16.22710566)
(1959.271697 34.71184737 -6.335819095)
(1951.764723 22.21323568 -18.50539994)
(1974.804553 33.11473822 -10.71335425)
(1949.642875 -14.77805815 -24.58850877)
(1957.826194 7.413861098 -32.08840759)
(1962.726376 17.60890402 -20.82662198)
(1973.449792 9.174421799 11.79870157)
(1966.542417 -3.580335217 13.76208054)
(1915.869716 12.46381602 15.53154434)
(1931.86451 8.497524676 10.35464172)
(1944.544774 -4.583706757 -18.32080662)
(1941.52766 -9.225988392 -34.23488629)
(1920.550482 19.6279171 -46.12585184)
(1930.891957 31.96244393 -50.10591435)
(1952.264051 6.506502812 -20.05149514)
(1912.345166 -1.275313275 6.374914199)
(1913.200351 -11.95765913 -2.176925906)
(1931.467146 -34.37215171 -40.35616761)
(1945.838755 -30.90119777 -33.90129948)
(1940.550199 37.23891506 51.19763453)
(1935.872063 4.290661637 38.71056266)
(1933.920085 10.64380933 49.66188171)
(1921.425232 27.29020121 38.506601)
(1915.600503 26.75477093 50.33222175)
(1931.209861 16.65939059 27.01569578)
(1947.023811 -0.0587737186 25.97689028)
(1947.012393 11.72098267 39.25992074)
(1941.488888 23.6191558 -12.73936973)
(1980.258156 2.749398061 -31.77334652)
(1964.795333 -19.41480025 -27.68904779)
(1961.094907 20.24130562 -22.19974828)
(1972.257699 17.80187635 -18.07654238)
(1962.634367 11.48787829 -19.00415262)
(1954.365317 3.256419449 -31.21289129)
(1940.002149 30.04135089 -26.17609384)
(1960.503171 -1.081365302 -14.65279349)
(1939.798269 1.948028333 -5.630275106)
(1946.197085 37.68888665 35.85506009)
(1947.588731 73.44576515 44.14375957)
(1916.46894 -10.27246401 33.06632628)
(1915.340673 16.09543515 -6.037513453)
(1882.996959 13.09476887 20.58634751)
(1896.742173 21.78750477 21.74440792)
(1910.723356 10.91598497 33.55761842)
(1954.158987 26.73473747 27.26951363)
(1993.389736 -4.629974765 8.278267408)
(1985.808511 -34.4437809 -3.850368385)
(1974.522648 -9.418220438 6.3093744)
(1975.335712 -5.652973408 14.28919963)
(1967.21745 -22.25226701 -17.56681339)
(1987.679241 2.151732897 -42.05683699)
(1976.270812 43.06222169 -53.77762925)
(1966.186256 40.98917976 -28.76317585)
(1954.293567 41.42064867 -26.93569424)
(1932.016085 25.58702308 -27.89544376)
(1937.235239 20.12699769 -55.24770277)
(1934.964685 -4.205457466 -20.47262795)
(1926.366515 -17.5745649 32.48395711)
(1928.010997 -41.08576249 63.69592976)
(1936.068284 -19.44616748 43.0499992)
(1934.694395 -35.90543024 12.68892638)
(1945.421145 -17.31613545 -13.26064769)
(1949.367601 17.70618855 0.7372287945)
(1951.537266 38.1350294 12.09447892)
(1951.506433 56.53379644 15.13812346)
(1945.683492 70.63431564 -14.31584087)
(1951.518331 51.89257717 -12.4614832)
(1938.556112 12.90204225 -9.523632281)
(1918.883763 1.278755877 -28.03142651)
(1919.544509 31.23356306 -40.17014293)