/*--------------------------------*- C++ -*----------------------------------*\
| =========                 |                                                 |
| \\      /  F ield         | OpenFOAM: The Open Source CFD Toolbox           |
|  \\    /   O peration     | Version:  2.4.0-MNF                             |
|   \\  /    A nd           | Web:      www.OpenFOAM.org                      |
|    \\/     M anipulation  |                                                 |
\*---------------------------------------------------------------------------*/
FoamFile
{
    version     2.0;
    format      ascii;
    class       volVectorField;
    location    "0.001";
    object      UMean_N2;
}
// * * * * * * * * * * * * * * * * * * * * * * * * * * * * * * * * * * * * * //

dimensions      [0 1 -1 0 0 0 0];

internalField   nonuniform List<vector> 
5120
(
(1948.16403 8.114703675 -19.22824947)
(1980.228018 -7.11302182 -8.233182283)
(1987.471388 -2.397919555 10.67990123)
(1970.447916 17.61457648 7.733976711)
(1947.22309 10.17995212 6.729070242)
(1942.520308 17.66104931 2.002475946)
(1947.261469 9.619074021 2.528394508)
(1949.609315 17.30429771 5.961465339)
(1944.413695 4.195644345 -8.515072767)
(1928.853552 -19.76766401 16.21555634)
(1948.039596 1.438593668 10.07307119)
(1955.911537 1.396123679 13.0276217)
(1962.825702 0.8377219258 4.804953968)
(1969.118692 -2.270947426 0.4418729379)
(1977.532078 -13.45535077 1.757857407)
(1969.23697 12.88742421 -3.727153916)
(1940.699625 19.68974885 -5.967700313)
(1943.678038 14.50692313 2.552268701)
(1944.380472 16.91110002 9.398944893)
(1952.530814 5.314892971 2.507629734)
(1931.209525 7.945151136 22.1468044)
(1916.918792 12.84991171 -7.732152142)
(1931.880963 14.50121369 3.810464311)
(1924.449045 -1.318135707 8.253395585)
(1937.213777 -0.1017123577 12.854807)
(1958.880393 1.089040571 26.63588797)
(1952.319156 -2.060425853 17.87037873)
(1945.643644 13.37473101 1.324606368)
(1957.908169 12.34095412 -0.3137378579)
(1976.275282 17.54948851 2.816088983)
(1958.194794 4.120307963 -1.329829529)
(1948.944894 -1.965875705 -8.917603945)
(1944.066047 -6.526215489 -24.70096288)
(1956.079076 15.10865215 -25.91579578)
(1969.598809 2.456199762 -17.57732828)
(1952.165447 -15.3986474 3.103657999)
(1942.335986 -17.7509971 -0.2325438138)
(1932.546276 -15.25412661 -20.90933622)
(1908.799936 -12.14513629 -26.43561334)
(1921.786232 14.38367444 -5.19342548)
(1953.319935 -9.683123414 -44.02620566)
(1966.452236 17.14800971 -25.29392447)
(1962.551062 0.7733976456 -3.204986579)
(1950.366893 -15.35294802 -7.330853585)
(1948.650967 2.744253088 13.76514597)
(1952.843042 2.081538742 10.85463986)
(1950.810663 -0.3330690857 15.49422905)
(1946.019295 2.914820865 20.52080442)
(1962.403902 -3.443291908 3.838473459)
(1957.932184 2.766853513 7.66143439)
(1952.12963 17.18998453 -12.34776877)
(1953.193202 24.41920076 -21.17776333)
(1963.384649 6.06507496 -31.46869434)
(1953.594262 -15.23247184 -18.02906209)
(1953.05855 -30.73073849 -1.931170283)
(1960.779725 -14.80301485 0.9432098253)
(1963.212 -17.79180416 -3.160708639)
(1949.173337 -36.41105802 -5.286210497)
(1941.93294 -19.32309487 -17.69919466)
(1955.120705 -14.76515709 -12.70582253)
(1973.248215 -24.40683145 2.313541293)
(1967.807517 -33.66250238 2.817384326)
(1948.478904 -2.747857998 -2.226838538)
(1936.653129 20.48464225 4.780253699)
(1925.26075 8.300047653 12.68863092)
(1938.498695 5.809213662 -2.267027544)
(1940.295538 -5.355317885 -22.50125169)
(1955.084249 -2.975857844 -27.78040765)
(1944.244477 -2.757353883 -30.15083285)
(1939.796017 3.630107201 -22.57215024)
(1935.744183 -16.43537013 -14.26845732)
(1945.279835 -13.6455393 -8.921392671)
(1964.102563 18.31305062 15.44685741)
(1967.3981 10.38080045 21.30937073)
(1966.521408 14.09570945 4.320155612)
(1965.967579 3.037142182 -11.20201488)
(1949.241323 -3.482513378 -22.52802585)
(1950.766317 -16.05703353 10.32955443)
(1959.519618 -17.48841318 18.26449044)
(1958.718093 -16.06422708 6.993338127)
(1941.058745 4.677148962 -35.954513)
(1953.607901 12.72222045 -9.199797102)
(1956.430147 6.769085315 5.202385319)
(1967.724007 -8.510407772 -0.8280217097)
(1962.071496 13.95771887 -2.439394089)
(1953.258667 19.06222444 1.84181501)
(1952.49605 21.28348857 -7.785339859)
(1954.400078 21.68362088 1.040560129)
(1951.036372 7.092628296 2.08442438)
(1964.462137 0.7960546042 15.78241771)
(1974.556326 32.41803162 10.35861635)
(1979.288871 -8.266114146 14.7123879)
(1954.993542 -1.919277678 -8.567782683)
(1969.120799 6.139594011 -13.16341314)
(1939.643389 -7.540046925 -35.44024235)
(1942.74078 -8.696329337 -24.53998025)
(1936.685124 -2.211123694 0.3977604305)
(1938.175701 7.654281714 -15.60738565)
(1921.41822 -1.239790335 -37.45701761)
(1916.393186 -6.47267097 -18.32743702)
(1927.3365 -4.40651496 -5.229946679)
(1931.524965 4.272807997 0.01248602578)
(1935.571513 37.94714894 5.683296832)
(1937.361146 51.50636024 7.37977246)
(1938.860121 47.03906265 -9.597301956)
(1972.303662 22.78145815 -6.970181738)
(1961.046341 12.71651516 4.078576689)
(1947.369006 0.9123391551 11.11668634)
(1951.280444 5.55198293 -4.972588389)
(1963.347276 11.21876659 -11.28024504)
(1967.917534 -3.612324318 0.01264008787)
(1977.367341 11.75835233 -25.88587822)
(1976.714291 19.33344804 -11.82732675)
(1979.453069 10.24408273 1.427070452)
(1983.58614 10.74283713 14.57960547)
(1982.10207 7.900801929 3.403865681)
(1979.349555 -10.20581335 -2.666180115)
(1958.537411 -12.36525495 -2.727422466)
(1947.740686 -3.691734582 -0.07310497251)
(1938.413394 -9.375499284 -18.06375941)
(1943.5269 31.31069837 12.78441345)
(1954.891987 5.43031424 3.416029264)
(1932.222383 -1.505207945 6.422008054)
(1934.176292 -6.002753518 0.6548738502)
(1963.980139 17.2947214 11.26279165)
(1953.769857 15.4768157 -2.777818857)
(1968.137661 20.04125262 -1.290466671)
(1961.778262 17.04282923 -11.04038438)
(1958.682352 24.24287419 -14.18110399)
(1961.651807 25.2316787 -23.54890347)
(1969.746583 13.68319272 1.89154354)
(1974.779158 8.452435574 2.703921538)
(1949.386101 1.360730766 11.56525082)
(1923.393858 7.530947648 14.53307885)
(1925.660099 11.39454914 10.99463186)
(1937.514558 -15.77220921 4.911405522)
(1950.763762 -3.381166155 -8.50171402)
(1944.952044 -5.943687847 -4.375058244)
(1945.856588 -6.403208374 8.018086941)
(1940.413823 15.04226361 1.288759997)
(1981.097941 -4.398498803 -33.18285742)
(1997.650441 -7.358862251 -14.78518354)
(1975.878823 18.30017987 17.7019556)
(1962.003126 24.19792213 20.56003492)
(1949.000671 29.0992369 12.78187679)
(1950.155848 29.71305375 9.569889826)
(1947.931102 23.52154908 12.90715357)
(1977.701302 -4.213767491 10.35272161)
(1964.642023 -20.26963124 -0.5815848744)
(1949.280811 -13.15291088 10.43425872)
(1955.754535 -9.764574554 -5.872006446)
(1959.717421 -5.197766055 -8.453538267)
(1957.228254 8.939068875 1.679246444)
(1960.210684 4.651659546 -7.976994655)
(1945.646516 0.3139391625 9.602436872)
(1949.381176 19.90857828 -7.386712084)
(1962.555569 4.233408538 -14.44974961)
(1959.022491 14.21413664 -19.78381273)
(1950.19329 10.5767889 -22.62372353)
(1973.239401 7.947220509 -23.42052803)
(1945.078595 -7.544319207 1.429281171)
(1936.565415 10.3871781 6.220848859)
(1935.588891 32.60884836 -13.47954271)
(1951.645395 10.27419195 -14.12763695)
(1935.389567 16.39644065 -21.13440363)
(1940.431431 14.12304551 -2.329890006)
(1936.178411 10.63416352 5.481881557)
(1933.782191 17.19101515 35.22577219)
(1952.381547 18.37928874 33.99442871)
(1964.323411 13.06522308 26.12407091)
(1944.069479 -3.204925499 24.95552152)
(1940.2542 -13.51410087 35.24247338)
(1943.753556 -10.30120599 24.47363111)
(1942.365543 -18.08000722 25.58668416)
(1944.978549 -8.061337278 10.4859972)
(1935.629172 11.68841179 2.707724271)
(1933.196803 17.79059867 3.903497393)
(1931.438741 31.76483623 -3.191997326)
(1937.820064 24.12705724 -14.72821733)
(1946.206003 19.39995834 -8.967749171)
(1920.975874 8.771792524 17.08680253)
(1922.482642 15.69951445 26.38506746)
(1942.57778 -9.022313987 15.16426086)
(1945.103558 -12.19347854 16.70679804)
(1965.268249 -0.3144108482 15.51583765)
(1970.967833 2.502011967 1.490677943)
(1969.95228 14.43535627 20.08163691)
(1956.719066 11.241148 17.70987381)
(1956.485933 21.97076722 19.76555629)
(1962.497853 12.62695908 12.7940923)
(1957.29455 15.37690485 2.299178602)
(1952.342336 9.362970144 18.30096414)
(1942.9224 12.13100668 25.86986768)
(1953.189742 28.05265559 26.76957258)
(1963.018038 10.31699073 39.29018248)
(1971.292706 1.150048039 28.24613866)
(1952.214999 0.9272259473 17.96767138)
(1949.733126 9.19117809 20.9978735)
(1945.871608 11.2745538 31.0447299)
(1940.129348 9.002719016 23.86278709)
(1977.956966 24.12653508 4.462194446)
(1965.057369 -1.806511877 -0.9436240332)
(1944.422778 -1.393908325 -3.215830612)
(1938.912991 -6.452925532 2.656525916)
(1949.600072 -17.77467431 8.674090428)
(1947.292175 -23.62664387 1.215234533)
(1948.756547 1.944942771 3.292641522)
(1946.256785 22.80881322 7.140504185)
(1952.65861 21.25977516 -6.537891193)
(1931.963366 6.394769658 -0.225159711)
(1930.594961 13.04482443 -6.806985767)
(1928.250163 2.803695511 -12.88396602)
(1922.710604 6.096402441 -8.840776142)
(1929.877839 6.738385767 -8.456112176)
(1918.26437 -2.42740394 -11.74194451)
(1931.673092 2.553612936 -6.262979129)
(1934.665797 -12.68389785 -8.596845504)
(1939.043283 -23.71435889 -6.788927106)
(1949.389722 -13.49267676 -7.311764444)
(1970.308215 19.35842833 -2.72923098)
(1939.624234 3.275753507 -6.734412367)
(1944.149676 -1.693234508 -6.185904198)
(1938.456404 2.065167842 -14.42343775)
(1948.43074 -0.8375946759 -3.141588841)
(1951.42343 -0.7217849282 5.688795387)
(1954.817045 9.164230236 11.5145225)
(1958.010498 6.823409894 6.051350792)
(1960.004403 1.165612732 -8.282078003)
(1937.540542 -0.8617487049 13.97338393)
(1942.381713 -14.0607357 8.585252515)
(1955.089386 -5.200609204 -0.3901318667)
(1953.179819 -13.56464556 10.99941644)
(1953.45769 -10.99480838 10.52562008)
(1954.104845 -18.21892062 10.37718047)
(1939.338993 -28.57466075 5.319655835)
(1926.058218 -15.93925554 9.450020467)
(1943.890894 -10.84478323 19.55762872)
(1944.119425 9.640779486 15.8736235)
(1937.039946 14.4841207 12.14354442)
(1934.49152 23.6520223 6.431049955)
(1960.338999 6.954959397 -4.660830353)
(1957.409819 -2.145770969 -1.809478494)
(1956.11844 -5.255158994 1.482115461)
(1938.349738 -9.585320808 -11.84469039)
(1928.054226 -4.361738009 4.335043241)
(1919.82578 -14.05340285 -2.590978834)
(1928.149771 -2.032186428 8.635988769)
(1934.307419 -2.539652099 28.51066254)
(1957.129345 -22.77393318 19.03393866)
(1958.624539 -12.54145511 6.84590104)
(1960.527042 -9.226191455 -0.7001086431)
(1947.621126 -12.91496662 -24.13380911)
(1968.724814 -28.92118883 -41.62833775)
(1967.808533 -24.58157853 -26.69282448)
(1981.618948 -16.30319399 1.308988183)
(1975.756368 -19.95921143 19.5055998)
(1956.368747 -3.15842447 23.04395715)
(1962.162245 -15.14262588 23.22862036)
(1953.992261 -2.806932784 15.26180687)
(1960.95039 6.59271918 -0.2927131241)
(1957.257924 -0.6852342131 -8.148097812)
(1965.108824 8.594970824 -18.02258539)
(1962.495824 -4.637828115 -13.17190167)
(1971.234863 8.112249753 -2.784840681)
(1972.567198 7.684304953 -6.938429258)
(1973.270705 11.30740714 -4.426893142)
(1980.165689 -3.89114608 -9.897816537)
(1969.547506 -16.98257133 -6.977046326)
(1948.894813 -21.46087894 -13.59124325)
(1938.986788 -17.94812797 -10.59184906)
(1953.793571 -9.994499354 -21.22060681)
(1968.571042 -16.64996511 -23.20013433)
(1950.235024 -6.23650751 -22.81908416)
(1957.507275 -13.36513793 5.719975967)
(1957.832572 -15.7672443 7.795675984)
(1972.826827 -14.47728317 15.94217516)
(1981.068529 -6.760314363 -6.172776827)
(1971.604366 3.301426296 7.627308132)
(1962.744685 17.15811087 10.05372128)
(1942.758749 -6.818808903 -0.6007871174)
(1934.049802 -1.311110698 -4.002221924)
(1923.556749 -9.594951551 1.34820415)
(1918.735652 -16.16084837 -8.399484356)
(1936.517788 -19.1483692 -6.165076416)
(1928.064339 -39.62614141 -1.483040075)
(1930.007815 -26.2032749 33.21751779)
(1935.522292 -28.60803977 12.99557433)
(1948.732545 0.8847138654 -15.16414592)
(1942.093217 21.69479128 -17.74476164)
(1936.324069 20.69785822 -29.07609966)
(1960.43067 12.15680999 -18.56617882)
(1955.059871 23.45175988 -7.123338835)
(1964.244969 27.60421288 7.165683571)
(1951.673686 16.98912123 6.944650905)
(1966.614696 16.46097587 13.56001589)
(1961.771355 30.67107507 -15.18229824)
(1943.402368 6.98840777 -10.68956785)
(1932.007692 5.008088612 -23.94846877)
(1936.851955 -5.842639105 -14.69392912)
(1943.667672 2.598995699 -10.32175807)
(1954.635472 -20.91511565 -7.341747705)
(1945.042654 -6.363055003 13.32768694)
(1947.514289 -21.44866306 16.92790649)
(1938.649715 -18.95612002 14.29411403)
(1947.751912 -1.893321317 5.741404101)
(1952.725379 5.742163758 15.69422747)
(1954.990541 -2.787427831 14.46729049)
(1940.445217 -8.462335558 -1.236491193)
(1942.74472 -7.115113803 -7.443797368)
(1943.026934 5.850323193 2.15952682)
(1939.906922 16.56190426 -2.043880683)
(1938.875289 21.02364411 -24.7720228)
(1933.848658 21.50387245 -10.41619397)
(1936.136325 6.091416486 -12.03007127)
(1915.964505 -6.68828269 -14.93468137)
(1927.337427 -3.143318377 -4.174852303)
(1936.525994 -9.225021036 1.096032982)
(1942.237651 -9.788681381 -4.483151717)
(1948.957784 -17.31674427 1.592848847)
(1935.953056 -27.23651154 6.676481473)
(1950.328029 -17.37125271 -2.878062411)
(1949.209837 -0.4089510873 3.899616137)
(1957.286601 -4.212438453 2.362715114)
(1961.176312 -21.8269188 -8.938688116)
(1957.443575 -6.964737125 -20.87078352)
(1940.767203 0.4776399308 6.63254363)
(1956.052321 0.725712589 -6.959097738)
(1975.967262 -4.097129686 -7.596106497)
(1982.544137 16.87518697 15.67068299)
(1981.611332 10.34292087 1.217426697)
(1968.435605 -17.80025718 5.06396273)
(1955.065534 -15.04469344 6.412088741)
(1952.81433 5.856774572 27.53341499)
(1946.661642 28.41463267 12.11650591)
(1946.906172 16.42275563 9.780074645)
(1946.339957 -1.578352063 -0.4335080296)
(1951.014979 -12.61649403 -15.2967998)
(1953.35679 -25.34577026 -26.73165995)
(1948.665807 -17.76666377 -27.08720743)
(1946.027912 -4.253637569 -19.73190339)
(1949.213597 -0.08441489362 -13.20076834)
(1940.019767 -1.086921236 2.457699899)
(1930.362826 -18.63137125 7.69525825)
(1932.540378 -2.797159784 5.845186854)
(1937.899301 -3.594031469 -3.650572935)
(1946.979306 -7.013475438 -19.62265666)
(1938.362033 -2.998704904 -20.70295955)
(1933.943446 12.17840739 -11.44144867)
(1927.780455 10.1783284 -14.58936232)
(1933.26921 -1.865749502 -11.72971672)
(1937.876432 19.12735334 -0.2507381709)
(1947.123992 -0.5510977162 1.262265579)
(1948.343434 -0.2191343105 4.806859081)
(1953.796766 -2.147610575 14.55756374)
(1952.343915 3.134192613 -12.34602263)
(1966.751127 38.10492472 -19.71822029)
(1949.8137 19.88977587 -47.21043957)
(1955.512116 26.41776615 -23.97174694)
(1947.831237 25.09578081 -6.957814035)
(1934.184593 17.51241005 -9.167083091)
(1930.836551 24.75500843 26.64066845)
(1930.994677 24.19430528 17.1790199)
(1947.953666 19.00982225 -9.551338362)
(1956.620606 26.33863221 6.79034414)
(1950.8979 41.237989 7.668033413)
(1948.021374 34.87304152 5.487462837)
(1957.72764 10.21072355 14.01790719)
(1970.205754 -1.380402518 -5.511948698)
(1965.130222 2.767989617 -23.02419643)
(1980.199793 0.7754617632 -28.87426763)
(1977.938427 -7.656624438 -18.62016752)
(1963.198886 -0.6973050715 -23.46299445)
(1963.189384 -8.932838643 -10.20758711)
(1955.926697 -6.54224775 -3.393746268)
(1949.658012 15.51185108 7.390350774)
(1946.663835 3.075189896 12.66012944)
(1956.197745 10.76841993 8.617969535)
(1965.854315 14.2598013 15.02238465)
(1952.978783 2.367075948 17.69374919)
(1948.401352 0.7709352165 22.96816549)
(1953.062045 5.68965257 14.26633283)
(1969.959107 5.948528117 19.13845115)
(1971.909575 20.59335323 4.611993)
(1952.253176 20.35272007 7.282834369)
(1946.087803 17.44569731 -11.95913397)
(1950.321738 14.28440362 -4.644171328)
(1946.118882 12.59106539 -9.711678932)
(1935.828067 4.695912491 7.915661354)
(1950.689142 -5.859355159 7.793730365)
(1951.083035 -12.56087189 -17.06334276)
(1970.636749 -3.395309192 -30.8625698)
(1976.632365 -7.302736592 -14.70619918)
(1965.481776 -2.159685696 -13.42080259)
(1975.4306 10.94093367 -3.461829429)
(1957.8843 20.11757332 14.91691)
(1938.271299 23.54677627 -8.104198021)
(1944.860669 17.14058333 -1.830264284)
(1941.036233 31.87578269 -2.045764009)
(1957.1239 26.80890377 -1.547263019)
(1947.276402 17.24485637 -3.34507576)
(1961.893356 2.641475616 -34.04107123)
(1961.504208 10.56086672 -33.18823315)
(1940.250802 3.537592018 -21.77541794)
(1908.513718 -3.96628887 -24.30262235)
(1910.016931 -3.293571269 -24.24114123)
(1927.760106 -6.468537934 -28.53486997)
(1917.220193 6.698149312 -15.37231029)
(1927.22026 20.8894231 2.34281563)
(1933.80213 21.3306094 19.85980354)
(1926.297739 20.58035371 28.37209573)
(1942.04382 5.393699615 21.68503055)
(1937.440195 -7.884133645 8.113766502)
(1937.158804 -22.07296142 -19.32181389)
(1922.610274 -26.80712221 -10.24617408)
(1930.116571 -10.46229485 -17.40700269)
(1942.8124 8.574767567 -17.50033198)
(1924.805219 4.978638039 -35.80534161)
(1929.365424 -6.354014189 -33.02325093)
(1950.487393 -7.114698417 -24.96582474)
(1967.651099 2.808666965 -30.98125246)
(1924.015504 1.698087163 12.05125987)
(1923.56543 -7.473601314 -2.855666122)
(1924.440913 0.4365077886 -19.68070361)
(1932.497481 -1.700000884 -5.71423539)
(1934.996254 2.131487574 -10.33547061)
(1929.902361 -2.043661699 7.340683932)
(1914.153082 1.424934006 2.641993021)
(1933.483284 5.15050009 0.7839859679)
(1913.729317 -1.582243432 -13.43633609)
(1906.621026 -0.1488884846 -16.47214227)
(1922.094518 12.57553902 -26.31237309)
(1926.023267 31.69555632 -18.15108498)
(1931.734738 13.80464126 -12.55853746)
(1945.004891 4.354693025 -14.82468626)
(1945.570262 4.638767316 1.644075057)
(1940.023657 -4.382487341 -2.263214422)
(1936.348091 9.312059827 1.157405478)
(1946.625457 16.95992204 10.25170897)
(1937.713898 10.02212088 22.03657707)
(1934.571637 6.270655255 32.40564589)
(1960.785923 11.34686202 15.05171514)
(1956.708721 11.2497516 8.395188636)
(1947.198816 15.27912116 1.975747734)
(1955.023521 -1.71738334 -11.88756321)
(1945.561969 -9.638232733 -23.89621617)
(1960.199894 -4.555619962 -31.57414763)
(1963.076307 -6.28616063 -15.01001867)
(1960.005913 -4.060031948 -16.50492006)
(1955.702532 -9.504894012 0.07358092516)
(1956.631015 9.656125774 25.03659239)
(1946.045497 31.94640224 9.070312696)
(1949.896353 31.13974562 0.7941116926)
(1948.642052 32.77040646 -21.75957719)
(1943.197094 17.45911465 -21.63591553)
(1949.279399 8.790732633 -24.61764135)
(1941.02314 6.612336113 -8.451494238)
(1930.91165 11.39245259 2.399751479)
(1935.081279 11.27549621 10.17046822)
(1937.705435 15.29246909 16.25187452)
(1955.08591 12.51955725 15.00712993)
(1950.662714 -3.771692611 10.94727012)
(1955.212712 10.43012434 26.5139957)
(1954.308336 13.77700002 -2.945197621)
(1956.386206 6.130231501 -5.991348049)
(1975.342434 4.239472808 2.397085662)
(1958.27767 -7.129935015 7.573174503)
(1949.240626 10.96442873 -20.91678919)
(1956.920673 2.716891922 -34.99871338)
(1962.208285 3.684872642 -26.57201444)
(1956.58025 -4.2754367 -25.34958131)
(1941.054972 -2.986010945 -28.36944385)
(1934.86638 -1.166071263 -17.26671608)
(1951.06526 6.27684566 -11.03690759)
(1945.433305 18.38691262 16.1864396)
(1934.08916 20.14689698 -9.228924512)
(1938.852924 9.841545779 -16.17541223)
(1914.179908 7.116806568 2.289267768)
(1930.438182 8.17221115 4.7873246)
(1945.661723 10.94592396 -12.13272907)
(1959.414764 10.45391008 5.533608636)
(1944.995025 26.15608676 6.580863647)
(1942.541369 22.28806005 -3.374217291)
(1948.61914 7.77063357 8.745933155)
(1946.119189 5.010222982 21.03745586)
(1953.222324 -3.630225975 16.76162995)
(1959.551053 1.899976487 12.87076491)
(1943.27499 -3.638200715 0.7975548506)
(1933.703221 18.10622732 -11.29112719)
(1932.610718 8.061225034 -7.582433612)
(1927.652388 9.902094999 -6.824922878)
(1929.838628 -3.075605017 2.084694031)
(1931.149737 0.03912704992 14.44320102)
(1932.453647 -0.01845731997 18.37836765)
(1927.170245 -29.21416864 -2.130047991)
(1920.694072 -10.85153831 10.21377697)
(1923.69472 3.993271958 11.55335548)
(1939.588714 7.569272252 14.59859754)
(1962.076621 -1.136285018 20.15732651)
(1946.972185 3.480598645 30.4503407)
(1941.29822 32.5456949 11.09979397)
(1913.103875 -4.432087062 29.58563744)
(1918.869628 -9.27991161 25.86015328)
(1930.332797 -4.457115675 19.83481238)
(1931.686923 8.856440614 12.05559643)
(1939.629174 10.85366075 -7.672055459)
(1938.696346 13.22339953 3.900276288)
(1947.445503 0.548945872 15.15855273)
(1938.677493 9.485354082 -1.484055023)
(1924.775429 13.12008287 7.952238071)
(1930.359055 -1.998464072 13.33146299)
(1925.072861 -1.184487631 10.43475837)
(1937.658627 13.22513515 -9.94952965)
(1937.125395 14.44831888 -5.200961315)
(1917.599111 17.47993212 19.56286403)
(1940.551781 25.99562797 29.18321593)
(1947.249107 19.1042516 25.45182123)
(1942.010538 22.35705392 41.6918934)
(1939.165277 16.36354522 16.99683153)
(1921.117017 10.95860832 7.166339011)
(1905.008648 8.456015081 22.06911657)
(1931.068924 -5.177368141 17.28591119)
(1939.502767 1.731281264 16.33999907)
(1946.580108 5.930011238 12.34453791)
(1942.601756 19.21738129 -3.295022521)
(1931.402325 13.97615366 -7.436129596)
(1937.631694 16.54188236 14.95563615)
(1947.067579 19.36718669 -8.403177699)
(1936.673739 14.94420849 -0.5067720063)
(1922.788944 17.63146663 6.954308167)
(1935.458331 3.231674472 22.6370032)
(1931.190779 3.456157099 19.97754913)
(1922.372227 4.933906298 13.706303)
(1909.705149 -1.029500607 6.856988834)
(1920.140648 15.05177901 4.509637372)
(1916.80952 24.12486984 12.98381031)
(1920.786446 19.08758603 6.310352742)
(1915.25564 7.209388931 -2.920365474)
(1912.885421 16.24829773 0.5972780105)
(1931.35264 -0.2706030352 4.505797995)
(1933.256662 -15.9283006 11.64835813)
(1949.073474 28.89334648 15.88389716)
(1953.638945 25.70658361 7.349956461)
(1953.157884 13.60684016 1.236098895)
(1962.747002 1.593546352 -11.77357612)
(1957.213294 8.907699972 -20.45132031)
(1962.111748 -1.629085589 -35.55655676)
(1947.191578 -6.880772383 -26.65400094)
(1966.998889 -9.720739352 -24.40598974)
(1950.730403 -8.474883061 -10.83690837)
(1952.936216 8.574913984 -16.06670946)
(1956.94687 1.073348851 15.74847962)
(1963.426908 -13.94528493 24.0765271)
(1953.62133 -0.4093222976 10.02521219)
(1946.965854 -11.42150462 5.278790192)
(1946.660637 -23.83365856 11.20298652)
(1943.142906 -7.213123961 11.95994855)
(1953.028083 6.09935149 5.628155614)
(1946.9539 8.818219993 16.46349911)
(1951.75423 1.109544188 7.093961161)
(1950.166683 8.376687659 1.090699175)
(1933.078698 0.7230381404 6.920750426)
(1935.397291 15.31021297 11.00541161)
(1949.336872 9.86142664 -5.547031777)
(1968.167443 2.50099961 1.63335749)
(1977.519938 -11.4128906 7.928684599)
(1977.320752 -20.9985249 30.11027249)
(1953.958536 -20.51723167 11.05556208)
(1947.000333 -10.49060117 -6.66357368)
(1938.752287 -3.803353616 -4.209389298)
(1911.865522 -5.275473367 7.612271989)
(1910.270836 3.755509815 -13.07082743)
(1926.754059 -6.478021074 -12.51235877)
(1942.665251 -0.2070528207 0.4998820625)
(1954.277496 -2.208186459 19.33178215)
(1953.100022 -2.08654839 10.53891204)
(1955.055404 18.74583531 -16.97400817)
(1938.691654 20.4435466 -7.717600001)
(1933.439549 10.81791349 -8.061379165)
(1935.765636 12.96248863 -10.74612889)
(1940.012444 12.33334465 6.613252684)
(1968.375172 -5.865006714 -0.4564635643)
(1958.143853 -8.502054849 4.235110776)
(1962.706631 -1.363880889 -8.976672878)
(1954.920023 -8.019942576 -16.3901627)
(1958.781445 12.74314005 -23.03818566)
(1952.814699 1.824021269 -18.9438032)
(1968.345721 6.447191999 -17.90355821)
(1954.104379 -12.46672081 -3.569662965)
(1963.1397 -6.180861044 -2.192828922)
(1985.71155 -21.97478776 -2.262187823)
(1967.645949 -12.77502897 2.676088293)
(1933.249323 -3.445719607 12.43767959)
(1939.221053 2.599086876 17.18271217)
(1940.061408 20.9889051 1.405448233)
(1954.539747 0.285375794 -7.023494405)
(1949.491997 -12.21504536 2.991906594)
(1931.037161 -12.84841862 12.31477733)
(1953.417497 -18.29757229 6.826590857)
(1969.412998 -20.86672374 8.206950434)
(1967.414624 -6.70744367 10.34793672)
(1939.331658 12.03188953 -4.267436177)
(1960.918896 11.5732083 4.924135861)
(1967.273653 17.66451516 -2.479954918)
(1944.96632 12.06857881 -1.488319827)
(1943.328614 1.300403303 -5.136292724)
(1942.181092 -7.790798654 -36.47763915)
(1932.577742 -13.47916147 -37.66477527)
(1922.31213 3.738713072 -39.95544957)
(1937.128678 4.573953717 2.295760944)
(1940.733475 0.5680826373 16.11436297)
(1946.389809 -10.2766682 1.061401564)
(1962.627277 -17.95834298 -23.34113793)
(1951.262717 -24.87886397 -11.64556034)
(1956.656159 -38.74359518 -14.21960904)
(1964.02686 -30.48439423 -5.980063899)
(1964.684335 -17.31336543 -14.88394654)
(1967.137952 -13.89201925 -21.71740421)
(1943.057813 -4.249040256 -40.34650802)
(1941.898501 6.907653725 -29.53930082)
(1940.340417 -1.866908271 -19.96330798)
(1952.701246 0.7029384698 8.429793674)
(1943.893059 -3.331652927 9.835125805)
(1934.650559 4.232650193 3.329276262)
(1950.670849 10.86431452 0.5978766062)
(1952.407197 -3.451679358 6.045239991)
(1962.117566 -3.357761188 -7.697320201)
(1970.088151 -8.71937996 -29.77332493)
(1975.758703 -18.7137103 -8.355203481)
(1958.106997 -20.31310822 -9.419447905)
(1957.19695 -7.870717351 3.500721544)
(1946.91851 16.11145685 -6.763517434)
(1947.241868 12.71558744 4.342467938)
(1960.050293 3.182591287 -9.503826355)
(1961.54497 -6.232725168 -14.85238946)
(1950.330117 -5.005134179 -5.912909582)
(1944.520196 -16.41964185 -2.208356151)
(1938.492254 -0.5112012525 3.722030072)
(1946.266727 3.858789474 7.382943066)
(1968.581138 -0.8810534564 14.83400207)
(1972.815127 8.991913631 8.790699915)
(1976.570177 17.23447491 10.49845684)
(1954.982379 30.90277516 10.01852179)
(1948.137096 16.90967232 0.02444489207)
(1940.976454 -7.920922076 11.13167448)
(1947.427409 -23.95373168 27.93249615)
(1953.505757 -2.790800733 8.583640856)
(1966.816745 8.264973589 23.43528568)
(1953.164482 23.76364439 22.84503593)
(1952.370429 4.122564398 14.62885317)
(1945.592431 -0.2143854682 7.199990639)
(1931.825068 1.521194642 -3.545799302)
(1940.546035 -1.96592731 -23.27905696)
(1951.4179 -3.610094159 -28.10078095)
(1960.13443 16.62415943 -24.09228954)
(1945.133012 28.59273825 -18.92946432)
(1940.611249 38.84967563 -18.6209436)
(1956.052223 39.06580057 11.40799763)
(1959.957071 19.59187273 14.75569475)
(1951.494958 19.73193894 12.49374923)
(1970.855506 12.52656858 14.0362774)
(1949.052329 14.6167833 -11.81886607)
(1967.796598 12.84304364 -5.849054064)
(1972.498038 18.89446169 -7.971215207)
(1972.334404 19.00328785 8.419721799)
(1952.659891 53.20770527 -5.804179836)
(1938.307014 58.19390253 9.542583292)
(1943.070723 28.59400583 9.149859718)
(1950.582341 0.7669111959 23.68851606)
(1951.149424 -3.891273035 18.27362851)
(1973.137717 -9.481518251 26.56768382)
(1970.894419 -18.84876881 18.34615949)
(1969.867493 1.162908258 3.318967202)
(1950.376104 4.915872289 -6.34612051)
(1943.585865 -22.32109079 -31.86524143)
(1951.193411 -46.0419794 -42.75483501)
(1959.926582 -35.68296966 -23.55522432)
(1961.945291 -9.915197287 -23.99034504)
(1953.707462 4.170443713 -16.6563223)
(1953.665134 16.92048527 -19.79452156)
(1951.845302 9.030415102 -18.50922487)
(1953.755949 25.78882879 13.9236416)
(1959.677077 44.51497933 10.14540476)
(1970.114682 20.45291536 19.95856651)
(1968.974808 13.09202718 10.70497369)
(1964.118323 -6.418283064 3.127635511)
(1954.657621 -8.706093913 2.419742353)
(1950.536105 6.804388089 -32.83366538)
(1935.601109 9.975728563 -37.27652017)
(1955.852199 17.63746531 -33.24859529)
(1937.714192 19.54082853 -31.07244594)
(1957.990652 7.657147176 -20.2369776)
(1981.581152 9.687249665 -11.8333416)
(1977.95274 -5.659551051 -5.700250729)
(1973.230519 12.87381318 2.561095782)
(1965.937452 13.82286855 -2.851986988)
(1954.962805 -2.066883254 -5.726609925)
(1956.843985 -6.477509049 10.8343778)
(1953.726997 4.759348614 24.08759647)
(1951.854951 8.400469561 16.0310201)
(1955.501235 10.10063065 13.68247208)
(1934.33991 -14.95816282 -3.996370866)
(1930.466927 -7.351721062 -0.1821394977)
(1931.690068 -1.46538906 6.832596549)
(1934.84555 22.43098597 18.25551361)
(1956.853467 11.49765985 25.4501601)
(1946.615445 -2.912648163 0.2629524914)
(1928.341203 -3.061407786 6.254575099)
(1930.960853 -23.11902953 9.523475674)
(1952.780026 -14.0390743 -5.941623169)
(1933.899338 15.95963751 2.973231512)
(1927.553089 14.05908079 -5.731399167)
(1937.015639 7.316477119 -4.630173575)
(1939.557101 0.9294617165 -14.98770182)
(1930.227928 -16.49128614 -13.37557751)
(1930.660143 -17.02716408 0.9560188593)
(1941.07328 4.452847505 8.517384649)
(1931.590152 21.46628165 -5.279422792)
(1943.182741 -1.033674442 -9.844411885)
(1961.608289 13.46552499 -13.513563)
(1946.05778 -7.376124237 -14.48917288)
(1949.060863 15.15117674 -5.401999997)
(1949.541277 8.097495992 6.227110562)
(1960.864711 10.83211882 2.246306067)
(1959.755235 0.8795249998 -4.650900232)
(1952.436465 -2.061300008 -4.990480262)
(1940.761817 7.429398011 4.738489521)
(1948.072612 10.73250785 -10.3325865)
(1937.530159 11.34823523 -8.919422113)
(1926.617324 10.09948869 -18.24502865)
(1912.490246 18.27126952 -20.78349762)
(1922.771051 10.14207901 -20.24039367)
(1918.202727 11.68645996 -0.9839501073)
(1927.133387 -0.6983716245 1.638525362)
(1946.845299 10.66531779 -17.1830498)
(1933.42061 -13.70653319 -34.38678545)
(1950.131922 -8.754380904 -36.31370455)
(1965.894589 -21.32230253 -41.56513199)
(1962.553895 -11.37089985 -33.03045937)
(1945.390031 3.199524742 -27.02137344)
(1939.45298 8.66183731 -0.9158043258)
(1936.069455 17.30073165 -8.178395642)
(1936.126158 1.067832303 9.04126253)
(1941.89105 11.80433912 40.05208505)
(1933.106077 8.367628036 17.61859956)
(1933.290888 11.34284191 11.71108947)
(1933.761317 11.7487284 12.53571007)
(1936.206517 19.17973064 -1.652966767)
(1938.873321 30.57470191 -28.62641795)
(1942.859853 18.38854133 -19.36946252)
(1934.531952 12.21556109 -22.2452186)
(1922.755701 3.935025824 -13.81103023)
(1926.994981 -13.18776374 -16.65891646)
(1917.598185 11.10043859 -14.99618621)