/*--------------------------------*- C++ -*----------------------------------*\
| =========                 |                                                 |
| \\      /  F ield         | OpenFOAM: The Open Source CFD Toolbox           |
|  \\    /   O peration     | Version:  2.4.0-MNF                             |
|   \\  /    A nd           | Web:      www.OpenFOAM.org                      |
|    \\/     M anipulation  |                                                 |
\*---------------------------------------------------------------------------*/
FoamFile
{
    version     2.0;
    format      ascii;
    class       volVectorField;
    location    "0.001";
    object      UMean_mixture;
}
// * * * * * * * * * * * * * * * * * * * * * * * * * * * * * * * * * * * * * //

dimensions      [0 1 -1 0 0 0 0];

internalField   nonuniform List<vector> 
5120
(
(1961.939867 -0.1561172032 -14.40184313)
(1986.206257 -14.17023662 -6.466993893)
(1979.053182 -8.432431407 9.200912745)
(1962.025447 5.634838317 0.8214132817)
(1942.933923 6.211024575 -3.365744374)
(1941.44499 9.171083694 4.054264533)
(1945.709128 2.463841103 3.134417281)
(1946.936585 10.58544986 0.0332386747)
(1944.953431 -3.528970877 -7.593105631)
(1939.398988 -20.92864666 20.11510464)
(1948.461214 -0.08213002132 19.74961448)
(1946.621131 6.562591997 13.68791222)
(1951.39973 2.601060788 13.89257761)
(1954.684535 -5.855194649 6.559056847)
(1961.052628 -16.49104829 5.020362004)
(1953.0169 11.60475967 -4.221319217)
(1930.443043 12.96747181 -11.81115098)
(1937.607173 14.34014205 3.127305723)
(1942.119974 6.993948039 7.942062072)
(1959.830515 4.467456863 2.777963505)
(1926.170353 2.359518799 2.579495787)
(1915.027879 12.86157628 -13.55339832)
(1930.472457 9.787050635 -2.511333867)
(1930.891597 2.258972397 1.062911834)
(1936.603746 4.133586019 4.914327353)
(1955.255995 -0.9060429457 8.819508344)
(1952.210228 -3.86640654 10.1118916)
(1947.873853 9.433920624 -0.6758576054)
(1959.818425 2.942502774 7.850373479)
(1972.714269 4.707663821 6.34590959)
(1955.241085 -7.163037341 4.84963141)
(1946.859147 -14.33397542 -5.660833756)
(1944.849635 -10.13816228 -25.47042119)
(1955.797159 6.888917178 -30.64670284)
(1961.118066 0.9858397707 -26.11386118)
(1953.756239 -11.46170537 -13.07491336)
(1948.550339 -7.622431255 -11.69002407)
(1941.576111 -6.43933238 -21.31099425)
(1913.764887 0.7189827942 -25.25912052)
(1918.899774 6.259655838 -17.26305836)
(1951.042636 8.836729605 -25.714448)
(1958.295504 25.43903779 -16.59211367)
(1972.913563 11.49126506 -8.196359403)
(1966.820202 -16.80113073 -9.354645003)
(1956.148325 -2.886442731 13.05343945)
(1955.361366 -4.646181954 16.42703294)
(1954.701467 -12.13551501 18.39114394)
(1959.125776 -11.49447658 20.02515628)
(1974.413567 -23.31041396 5.789635331)
(1971.250652 -10.86779734 1.100955763)
(1957.360257 7.190285234 -9.841553041)
(1952.898527 18.17961634 -20.27309208)
(1961.133391 0.3977508047 -31.26064077)
(1961.953361 -18.71208928 -18.0380751)
(1954.563233 -29.945557 -7.388210367)
(1959.369204 -16.30198348 0.9519109527)
(1951.488138 -11.0702368 -4.960227209)
(1939.997264 -20.70705694 -8.170798298)
(1939.669361 -9.485873215 -14.79551012)
(1954.293921 1.891556089 -9.682972251)
(1970.213581 -15.63046647 3.656224846)
(1960.813781 -13.02396542 3.330828977)
(1939.519518 10.97122264 -1.69500087)
(1930.044787 25.99996239 5.247329352)
(1920.00758 8.158859873 11.26678454)
(1940.319373 7.945976321 -4.74645205)
(1939.572288 -2.439962602 -14.81129128)
(1951.867713 -6.483314472 -17.56110902)
(1942.048922 -12.21482428 -21.0239165)
(1937.144145 -5.231867392 -16.26796119)
(1934.363013 -18.56633024 -12.66762407)
(1944.076888 -16.28129599 -2.727066822)
(1946.205447 29.22972067 24.73430109)
(1948.921376 17.46289333 35.29627888)
(1952.131886 10.63464598 7.806025737)
(1964.255959 2.003540665 -14.51688033)
(1958.458273 4.473602532 -16.68173737)
(1954.02707 -12.9334041 11.16327483)
(1961.466447 -4.104199842 20.64134719)
(1964.92938 -7.444772178 14.2974057)
(1938.044849 -3.439008491 -28.03001751)
(1948.990078 -3.226272732 -9.107477459)
(1959.098176 2.988016448 0.2574365415)
(1964.373258 -12.51748383 -4.919841075)
(1956.57943 10.63052421 1.435598183)
(1944.020736 10.06764818 1.186198878)
(1935.883217 17.80853905 -3.198620419)
(1941.479834 13.2948801 5.516069171)
(1940.696152 3.280494466 3.501911441)
(1946.601776 0.4264979524 17.08491275)
(1954.74067 34.12331415 14.43546937)
(1962.201054 -0.6495793628 12.66440691)
(1940.416529 -3.582412287 -8.236371242)
(1943.75991 0.07144802314 -24.44417971)
(1921.987265 -10.84023153 -41.69509501)
(1921.548989 -1.565577554 -28.10673353)
(1922.041586 -1.625408501 -7.134675823)
(1926.688547 3.064741142 -20.58814416)
(1920.935198 -14.40879389 -27.15944111)
(1916.917263 -19.03192931 -4.267482062)
(1916.451236 -1.063687993 -5.223573136)
(1922.554699 4.278281033 -4.652844506)
(1932.978233 27.68076999 -1.006911702)
(1933.143301 38.53392874 4.177825866)
(1932.247668 34.26799647 -6.894104445)
(1957.295939 15.78689558 2.85600698)
(1947.137363 15.14755412 0.8102259255)
(1936.601611 -0.1820444469 4.423903557)
(1945.88481 6.057964622 -4.812439434)
(1959.172318 9.448874831 3.05737106)
(1962.835343 0.1868449292 8.858320375)
(1969.843516 6.695640993 -17.01298347)
(1975.191996 13.45675256 -3.480370745)
(1976.131396 2.585658316 12.36985371)
(1979.59501 -4.398403111 14.41980874)
(1976.329621 1.354946131 -0.7172936434)
(1973.027588 -14.29022213 -6.6776238)
(1956.544627 -19.73707818 -2.805638606)
(1942.627707 -3.641424576 -1.44922971)
(1933.198308 -8.70766991 -14.56818832)
(1944.594181 24.06402892 16.40257028)
(1957.591792 7.380302209 8.764230285)
(1931.869627 2.624587873 6.256444826)
(1930.119823 -6.012972337 -1.855552731)
(1951.423152 6.627212403 4.731387745)
(1952.597122 5.244688841 -0.1131497757)
(1964.302851 10.1879268 -0.7782644656)
(1965.021076 8.971151712 -9.730708058)
(1960.353578 10.63518563 -17.45533153)
(1960.625118 13.55794754 -22.12097919)
(1961.768357 11.93861222 -3.960845895)
(1963.981186 8.933917207 -3.637991088)
(1946.265416 1.397013992 7.334944257)
(1925.358738 7.515047453 5.052009756)
(1925.028504 10.46332903 8.812787887)
(1933.323471 -16.06943262 3.659190603)
(1943.779683 -10.10138319 -9.316226313)
(1937.487685 -3.81392341 -5.463281494)
(1942.806537 -1.256700832 5.451048676)
(1940.027069 13.4935379 8.986004144)
(1978.313701 0.3080578208 -18.83470986)
(1987.134502 -2.655692422 -8.831117992)
(1966.978279 17.33489299 11.54147205)
(1958.627248 28.8509154 17.12082348)
(1954.798139 28.73616533 18.21765718)
(1959.531192 24.71742634 10.8402963)
(1958.049002 16.2507197 17.57287714)
(1981.590919 -7.912607796 19.97517786)
(1972.461423 -13.1828825 0.8799093762)
(1960.85219 -9.001737826 13.21438158)
(1959.999623 -9.237280798 0.756090164)
(1949.222299 2.960231351 -4.432335409)
(1937.94384 10.90824523 1.171734936)
(1949.714577 7.737170359 -5.565229026)
(1941.217101 4.561052629 9.444522338)
(1952.240397 23.05124027 -5.254720625)
(1960.104245 6.355978554 -10.98382272)
(1961.863116 12.37126865 -24.347051)
(1952.698354 7.231088912 -19.76288412)
(1969.764305 3.616600155 -19.08723464)
(1952.805612 -13.72874709 1.674283335)
(1943.15754 4.554187929 1.672301325)
(1940.686509 29.48658193 -7.337799109)
(1945.495558 7.95440994 -5.64652913)
(1925.030595 23.68934547 -11.12073378)
(1932.551545 24.29748512 4.028066714)
(1931.298828 13.08023713 12.36859427)
(1928.50726 18.70583759 31.33906782)
(1939.834538 7.9148929 28.29221048)
(1954.69309 6.275204653 19.64093804)
(1944.171812 -10.77724406 21.38029798)
(1940.772896 -23.85092628 33.49962632)
(1943.543587 -17.52914044 26.0218156)
(1939.385913 -21.19018334 26.80231774)
(1947.381833 -12.16524343 15.50342296)
(1943.461245 3.18333162 8.69890037)
(1945.039539 7.841470841 8.153863995)
(1942.448531 17.80659647 1.700209788)
(1944.122658 13.46769448 -10.26134262)
(1953.438195 8.23214789 -8.769935288)
(1923.291503 -0.4610026297 8.51703439)
(1926.815727 5.445559442 11.67401369)
(1940.338413 -9.500844324 6.616663536)
(1940.41504 -9.721972619 14.91513795)
(1953.907519 -3.565064602 15.80838144)
(1960.954949 0.2512312003 3.894692862)
(1955.758592 7.752076449 15.51907459)
(1939.546343 4.889824562 7.70349816)
(1945.681405 11.88716647 13.57657676)
(1952.955293 3.851835125 6.643698394)
(1948.228803 4.636803582 -1.38996795)
(1950.050761 5.826220066 14.38953469)
(1944.868222 12.5112434 21.52517386)
(1957.262711 17.75113125 24.57017593)
(1964.627446 5.674157617 34.57488562)
(1969.548113 -4.113175004 29.71588215)
(1947.039466 -3.076396193 21.56126859)
(1942.990738 0.08534565023 25.13484752)
(1944.789169 -0.4848454232 32.57719772)
(1940.681663 2.8278864 19.55279562)
(1965.777249 11.82690221 9.444667798)
(1955.702615 -6.445467973 9.034449333)
(1948.763388 -6.305214014 7.996245189)
(1944.888146 -8.410480344 6.375106249)
(1955.19226 -15.10397372 14.19462546)
(1943.584904 -20.94477514 3.902645758)
(1950.864287 -3.266831414 7.888774764)
(1953.205559 7.258826394 3.362743466)
(1945.671565 13.86315073 -6.258933777)
(1935.997648 10.30305596 8.28713411)
(1931.267184 11.40174122 -3.029792233)
(1932.464946 -3.688633517 0.4667267303)
(1928.84796 0.3233497064 -3.103614285)
(1933.391867 7.386442823 -2.576154542)
(1925.65635 3.740525463 -9.623579111)
(1941.239793 2.463212439 -9.104037227)
(1939.865169 -9.832526091 -12.06668708)
(1945.497014 -15.97451879 -0.08519329751)
(1948.084155 -13.30210834 -7.459060873)
(1956.892177 0.454271803 -0.03049406329)
(1941.427294 1.229950548 -7.56803087)
(1938.986072 -4.751854443 -6.991707059)
(1931.294069 -3.81293263 -7.031314229)
(1937.520545 -6.348514203 11.83864049)
(1952.543402 -7.558191675 18.24682924)
(1960.060386 -4.841007816 20.63747039)
(1952.074713 0.6165109195 7.773692973)
(1953.556506 -1.713767156 -1.770105052)
(1935.882247 -9.072549344 23.77492682)
(1945.207141 -12.17200664 16.06185549)
(1953.429102 -2.739990219 5.974274313)
(1946.202693 -8.963882718 6.737139252)
(1938.923827 -11.7974352 12.31961301)
(1936.457119 -13.14165999 7.798751239)
(1925.195728 -22.04245834 6.437051082)
(1911.503298 -17.50383876 10.96373269)
(1929.592224 -11.59374478 10.34941435)
(1939.659354 0.1887999401 10.30020444)
(1938.036072 2.047831081 4.807686025)
(1939.168428 11.13991215 1.713680082)
(1961.308486 -11.8011053 0.01810028666)
(1951.351318 -10.38298784 4.517040757)
(1946.049821 -13.68922048 4.867052812)
(1936.634493 -15.08860332 -12.77669241)
(1926.773688 -6.149109435 4.724517014)
(1919.336057 -4.371268103 -3.863376365)
(1923.387095 3.69471245 3.949242393)
(1923.781289 -4.702058155 12.59842353)
(1945.064888 -22.48736879 4.366533491)
(1956.023732 -13.11516777 -1.212274428)
(1963.418653 -20.66033485 -3.737290359)
(1951.468428 -16.91067681 -24.48959853)
(1971.827195 -28.06010839 -42.06211892)
(1964.133793 -22.98175353 -27.45513238)
(1961.658018 -12.25718614 -4.439559724)
(1957.560906 -19.35047379 13.89086244)
(1947.049426 -7.530936673 19.13662461)
(1952.435928 -20.85453936 10.35648267)
(1950.46622 -19.13696932 5.840753138)
(1958.60985 -10.32016727 1.735602576)
(1935.52393 -13.79334094 -1.533412557)
(1941.603956 -13.91128758 1.852492058)
(1950.942268 -16.01858247 6.09943306)
(1966.398446 -1.417247674 22.78764867)
(1967.710818 8.514256176 6.961440517)
(1964.582515 15.61135343 2.822931758)
(1968.79881 5.232510433 -6.073282301)
(1955.587134 -5.938595709 -3.514662397)
(1944.501595 -19.26366484 -7.898782759)
(1945.048288 -17.65011181 -2.602581929)
(1955.519804 -4.482218101 -8.609640465)
(1977.35227 -14.90122452 -18.35790667)
(1968.555622 -13.95023791 -19.09892803)
(1962.524596 -18.49421818 2.849100577)
(1961.833102 -23.3477103 5.367429762)
(1974.104705 -27.00900891 6.946950276)
(1971.088423 -15.34759221 -8.786508333)
(1963.439795 0.3064394298 1.801549402)
(1948.847249 14.36388913 2.425112738)
(1925.052049 -0.461622008 3.086303505)
(1924.287633 7.917581875 -3.963810348)
(1924.497107 6.698156121 2.75861494)
(1923.251704 -5.711219524 -11.94431475)
(1928.132931 -18.13450908 -11.47953894)
(1931.549784 -44.3022778 -3.990508571)
(1939.201429 -30.37807143 26.84491978)
(1946.741645 -31.85751773 0.9893727531)
(1956.846742 -11.2290673 -14.58052707)
(1946.419994 15.73091037 -7.159909015)
(1944.193498 18.24991321 -10.05570247)
(1958.853966 10.44812446 -9.913130673)
(1954.766696 19.66262295 -2.127472899)
(1956.747246 20.47017448 8.543866807)
(1947.3676 11.29358853 2.230653734)
(1956.236953 12.67184819 6.682229592)
(1950.221062 15.24581603 -9.480957427)
(1941.394594 -0.9922793657 -7.723709809)
(1933.303783 -11.62747476 -20.19331135)
(1940.77458 -8.976987031 -4.711786095)
(1942.482282 2.4275764 2.096930568)
(1945.93899 -13.44988189 -16.22419514)
(1939.151122 -2.286590765 -8.732180548)
(1940.172184 -9.416200194 3.827664968)
(1940.240665 -9.295353827 2.645876842)
(1949.580182 -2.623752422 -3.195923257)
(1956.81331 -2.44323166 0.1951094486)
(1954.101358 -4.649659396 6.473977527)
(1943.143725 -6.675880933 4.530867664)
(1941.669355 -8.219639794 -4.428836026)
(1943.385817 1.555877724 -4.068466229)
(1943.210336 12.6957057 4.72831642)
(1944.137167 4.067566787 -9.446899906)
(1943.474878 11.70617914 -3.024590867)
(1941.309679 4.247279334 -3.352076269)
(1920.885725 -6.078165709 -10.41452543)
(1924.67245 -8.351070121 -0.7887870614)
(1932.521724 -12.50846032 9.766769403)
(1935.585937 -13.82610259 2.388554367)
(1936.846617 -21.90989263 3.489862316)
(1931.885113 -21.96574511 -3.793371768)
(1947.808426 -9.903297792 4.057908234)
(1938.044327 -1.192928647 -0.8201543154)
(1949.300367 6.529619215 0.7111630598)
(1956.87788 -18.84901524 -7.7373944)
(1961.377353 -6.125711949 -12.70869612)
(1946.859233 -3.422998401 2.002110544)
(1957.368858 -1.953716627 -13.14012212)
(1971.840416 -7.159646172 -10.87073561)
(1977.989663 10.09222271 5.482867387)
(1974.201108 4.353045452 -7.021896856)
(1959.752685 -12.06237461 -4.17391807)
(1942.747738 -1.077939604 -1.975092731)
(1939.666659 12.07503371 16.87399585)
(1935.607647 24.54075091 4.020672879)
(1935.32697 17.27696748 4.622474736)
(1936.012785 4.83149949 -4.203263192)
(1940.607622 5.282236042 -9.325398762)
(1948.49674 -16.21197623 -22.60055659)
(1952.894935 -5.27259993 -21.02088084)
(1946.816971 2.44515275 -4.663087672)
(1949.8882 -2.1096939 -16.96023033)
(1940.084002 -3.599052494 -4.100196009)
(1931.905918 -14.93867779 -1.052084356)
(1930.289581 0.8958468219 7.920135868)
(1937.544526 3.675504734 -3.801458018)
(1938.664365 2.666919924 -7.624108755)
(1928.431392 13.31589055 -9.585125951)
(1924.184693 31.43173399 -6.874649944)
(1922.386374 31.82497955 -12.62760004)
(1928.783604 13.54775589 -17.49959706)
(1942.164796 28.58955467 -13.81910866)
(1951.468604 12.12154769 -15.15370406)
(1949.392912 7.368280796 -8.660331232)
(1952.818035 -0.8991058809 -2.749385612)
(1951.037507 6.101400666 -21.17571632)
(1962.772857 24.59571659 -23.53739028)
(1953.13521 18.64419009 -46.86122834)
(1949.041702 29.11917501 -31.14513375)
(1945.898961 24.32677387 -21.23581848)
(1939.814881 10.4237532 -23.8219154)
(1941.309591 30.61711831 18.38096531)
(1939.229159 18.3194577 14.60712277)
(1949.375519 14.4695459 -3.005122586)
(1954.674071 18.17884209 -3.661266835)
(1948.303375 26.21037949 -9.245059992)
(1950.923414 30.70591047 -6.868754588)
(1955.754302 11.06460474 9.661302191)
(1963.515917 5.10157008 -6.088720501)
(1956.731509 5.893412111 -20.47890314)
(1972.336698 5.55078353 -22.29198666)
(1971.244675 1.403672334 -21.66698274)
(1957.659119 3.543917889 -28.43687317)
(1958.196468 0.7017480842 -15.63772974)
(1954.024491 3.533691966 -8.239153069)
(1948.032906 18.68129536 2.665560516)
(1944.718723 13.39046515 10.45720962)
(1958.411019 16.5423482 9.876467728)
(1961.273327 16.84663865 14.43634375)
(1953.198506 8.714123518 12.44121785)
(1958.685382 13.99838623 18.57466252)
(1952.717053 5.310362189 -0.3694466711)
(1970.132538 0.8045875995 -0.06227073688)
(1971.544032 12.86585305 -2.209229288)
(1963.313671 16.17640217 9.224313131)
(1949.36681 8.981536288 -1.712018261)
(1951.9295 0.4988047266 3.805946143)
(1944.952975 -0.03419268768 -5.906617561)
(1939.71736 -2.26732566 1.474074864)
(1951.946853 -3.601935737 5.398726659)
(1948.643952 -4.061436746 -12.17692211)
(1969.090643 3.055558031 -19.82405913)
(1972.967068 4.540384401 -10.08234249)
(1964.583421 11.29271874 -11.13554542)
(1973.307602 16.74237931 -2.013283354)
(1963.738948 30.95951497 21.42206528)
(1951.100562 32.28769552 5.436033909)
(1956.969049 22.42147558 3.459298344)
(1950.450708 36.55004412 3.978282187)
(1964.08704 27.35486282 -8.17674637)
(1947.321768 13.25399869 -9.271007474)
(1958.570988 8.580523757 -15.00784014)
(1959.44702 18.55919176 -10.22345043)
(1946.419654 10.42294968 -8.180118982)
(1927.262507 6.206468328 -13.42363465)
(1927.738594 6.57533437 -20.76749952)
(1942.15741 -4.194754197 -18.31381141)
(1934.042072 11.09662553 -5.358073052)
(1938.969537 33.90119813 3.978447216)
(1934.000249 30.55277025 25.46092839)
(1927.074626 28.40114492 26.4088912)
(1943.066839 9.055105049 18.95926447)
(1936.906201 6.479018621 7.379067851)
(1934.188729 -9.895238873 -17.85780155)
(1926.327948 -12.67815694 -11.418665)
(1928.738574 -2.454814029 -12.53065766)
(1941.684815 8.142311685 -14.4708077)
(1930.697993 8.054895521 -20.58851636)
(1936.788729 2.782669956 -24.2260457)
(1949.059171 4.169724614 -17.64926296)
(1963.333014 9.249483332 -27.56457043)
(1929.656819 2.72616393 3.029435356)
(1932.636494 -3.033562083 -11.22325841)
(1932.117218 7.359504204 -15.87558323)
(1938.405462 6.580634557 -3.987061757)
(1945.999137 15.20524085 -13.63705534)
(1937.866288 25.09885124 -2.583382448)
(1918.11827 16.69759538 3.994273491)
(1927.053626 14.09461528 1.589196773)
(1908.614351 13.39195317 -9.584726698)
(1901.558936 6.328588818 -7.492567011)
(1911.03224 10.70516761 -16.53117053)
(1920.014619 25.77975609 -7.791113232)
(1926.553526 6.748095178 -7.78379581)
(1937.615397 1.488536419 -14.12121436)
(1941.549029 8.126477195 -1.701607679)
(1942.49291 8.449498905 -1.268591149)
(1939.845832 18.21646512 -6.193710576)
(1952.260553 23.34785919 -6.411171071)
(1943.775353 15.20679365 5.161923536)
(1944.786769 2.453322216 19.22180383)
(1962.90163 14.65728743 12.35274775)
(1959.584625 7.354645156 11.46597882)
(1954.108818 12.21693054 12.25863665)
(1961.926533 1.886158615 4.071000305)
(1953.554134 -7.475412198 -8.258954026)
(1950.040709 -3.473720072 -18.3094987)
(1956.071495 -0.7274931533 -9.076485374)
(1958.104862 -0.8373473752 -7.039524087)
(1957.175722 -2.686038322 5.895636857)
(1958.263585 19.36803359 13.10284643)
(1951.957633 38.03331939 0.7064809557)
(1949.943625 32.44012571 -3.913590123)
(1936.989264 35.69170699 -15.58756633)
(1934.643846 25.91046438 -19.01131846)
(1948.720112 14.64931236 -24.46788742)
(1937.454908 4.430750359 -21.19346242)
(1921.323172 7.874087913 -3.463628974)
(1929.243641 12.61046092 3.904143689)
(1941.898788 13.34446969 9.691890024)
(1953.693485 17.79355124 6.430770595)
(1958.567979 -3.464753971 8.633312621)
(1957.507971 7.38339145 25.38596375)
(1958.031426 9.63288005 7.953882468)
(1961.141101 6.387320821 -3.520570155)
(1973.576528 -2.110995803 8.875984684)
(1965.363719 -12.70405581 10.44633619)
(1959.385641 1.541907685 -12.17090745)
(1955.123818 -2.43736088 -20.35152314)
(1961.902633 -2.289614446 -7.243397625)
(1963.909901 -7.667250351 -8.621048167)
(1954.447047 -5.704871323 -15.78403371)
(1953.446263 -2.5831624 -12.01831804)
(1969.404648 10.23451825 -8.662952646)
(1961.730973 24.5434145 18.65453876)
(1943.613464 21.87755989 -12.13587572)
(1946.423297 9.085028174 -9.931425548)
(1930.528086 13.09196879 2.101986967)
(1946.232805 11.48269259 6.809065974)
(1953.493315 14.94965215 -5.535142074)
(1962.066921 5.295637344 14.56536818)
(1935.407415 9.263021163 6.582787677)
(1942.296195 5.903271173 2.209028297)
(1949.231218 -5.48562755 8.068228656)
(1943.379832 -5.057351299 21.10600652)
(1948.888347 -15.24528819 16.93262874)
(1958.497396 -9.345456173 4.094960326)
(1949.223614 -14.61380779 -1.076963713)
(1948.03394 4.45115946 -7.841974007)
(1942.418898 -0.3110757941 -7.411936504)
(1935.859315 11.81039913 -4.400002331)
(1942.753697 5.525713884 1.125303746)
(1944.229409 5.90009187 7.288210682)
(1944.676336 0.8834928807 11.39451921)
(1945.232909 -26.94499294 0.3577606921)
(1934.202618 -18.2659452 11.07069813)
(1936.977289 4.310126846 12.26832484)
(1943.547569 7.604562757 15.60853451)
(1955.124263 7.536405582 26.51739528)
(1939.140142 10.15999175 39.01019023)
(1931.446394 24.23763739 18.80652194)
(1919.220713 -7.804600079 27.17842593)
(1910.942638 -7.473826207 24.06878156)
(1920.57005 -7.784873248 19.20079133)
(1931.552451 3.248242877 13.15448341)
(1937.598523 6.759074927 -7.026302801)
(1936.119442 7.955882305 0.2156998152)
(1942.531722 -6.133371347 10.28781341)
(1939.415603 0.2915744664 -0.7570316139)
(1928.419626 1.002347607 6.115744385)
(1929.988408 -11.79240707 10.47075172)
(1922.985704 -10.00689764 10.05817504)
(1930.77158 5.53247802 -11.06057131)
(1931.31494 4.724494202 -0.4195667085)
(1914.497458 14.63942627 15.40737427)
(1939.679073 22.33410851 22.33341312)
(1949.55806 12.93590463 23.17958893)
(1945.036775 7.978747433 34.35354823)
(1936.994577 3.678741306 18.19888212)
(1921.521262 9.611552454 4.787766453)
(1908.917197 1.305452281 15.47651324)
(1937.049264 -0.6420662277 11.77359464)
(1942.66293 -2.072960215 17.52934982)
(1950.122902 4.975615167 8.879406011)
(1941.6192 21.97123985 0.9986318399)
(1941.341052 12.84297517 -5.763343816)
(1943.776479 10.17601122 10.13470119)
(1951.38421 3.38689374 -11.22590447)
(1942.415185 1.479003674 3.338102587)
(1932.265434 3.900734181 11.06238624)
(1937.773528 -2.733733673 22.25940031)
(1931.782378 2.478167002 23.6390044)
(1924.165975 6.622097392 20.08688053)
(1912.913632 7.409190826 4.364652824)
(1919.732391 21.94816202 -0.7698505661)
(1922.48859 23.68840198 4.693603997)
(1923.901864 19.13914335 -1.119458685)
(1914.804818 8.956371301 -2.720135314)
(1914.569097 6.821658062 -0.3793912206)
(1930.333567 -9.388665548 2.04874899)
(1934.251781 -15.54735699 9.130526139)
(1944.570278 22.67280134 7.92205725)
(1950.990921 19.41869098 9.921403225)
(1944.506649 13.08751185 8.962064531)
(1953.988411 -0.9020323717 -7.210684315)
(1941.670321 10.94157412 -6.113976483)
(1947.16489 0.3758638597 -17.84989085)
(1943.441214 -6.609139263 -19.94459311)
(1959.222504 -2.562064378 -17.72259913)
(1943.8342 -12.23965704 -9.96919258)
(1941.39563 5.890022646 -12.06994604)
(1940.70904 -0.06046390044 9.49131225)
(1948.52579 -10.42696674 24.13137333)
(1936.527951 2.908383643 13.70658303)
(1943.11742 -7.910296941 3.689423761)
(1943.868254 -20.64749692 4.007903409)
(1947.357919 -9.587225822 1.639844904)
(1957.129176 -0.110563195 -7.832207525)
(1947.349138 1.936682657 2.893444894)
(1951.102999 1.257599721 -0.0577734821)
(1947.802149 5.56235278 -5.523940425)
(1934.14695 -1.626917776 6.330883365)
(1930.987771 6.666234611 8.016193853)
(1944.255344 13.16592574 -4.527128112)
(1965.128827 8.538139883 3.778705218)
(1967.264368 -13.28787195 6.062065975)
(1956.882812 -17.82554177 25.3161302)
(1940.465495 -14.49809469 14.78793247)
(1945.580831 -1.52415962 -8.763698863)
(1938.687765 2.73522458 -6.87562624)
(1912.024001 -2.746642145 5.738283497)
(1919.34255 -3.464389128 -10.61247462)
(1928.610574 -13.98829942 -8.324255876)
(1940.726079 -3.099615312 -1.174527547)
(1953.14604 -4.19756732 5.35811437)
(1956.392131 -2.992475848 -0.6073036588)
(1962.067042 12.99577365 -15.49034029)
(1939.385799 15.56222012 -4.937614083)
(1932.281575 9.628384293 4.245501894)
(1937.312296 9.665481528 11.71542336)
(1940.442768 7.875029675 17.07459186)
(1968.108164 -11.1748633 -7.112116041)
(1967.082675 -0.4935042178 0.3628910585)
(1965.081375 8.885543021 -8.643662546)
(1954.412331 4.695547374 -17.4562825)
(1955.852392 21.69730114 -25.63356154)
(1950.45466 12.98467866 -22.84030665)
(1953.122248 16.57742476 -22.25630535)
(1946.236631 -6.243127406 -7.949708541)
(1960.298591 -8.981546595 -7.909025423)
(1980.623576 -16.7391839 -8.786254113)
(1959.350479 -8.072811669 -4.10172478)
(1933.928946 -2.25749433 10.46738067)
(1932.33939 -10.41341404 10.07294686)
(1930.632093 1.124099954 -2.692475636)
(1943.49281 -11.31757068 -1.029257643)
(1948.045132 -12.72845994 4.20708893)
(1938.366686 -19.74354054 8.23163963)
(1948.379096 -20.04114706 0.3434374142)
(1960.397045 -28.39530786 -4.712121138)
(1969.946706 -11.80770995 4.10957928)
(1937.600166 25.41397264 3.727501742)
(1942.033669 10.92265715 10.0974088)
(1945.699628 10.85328637 7.848755979)
(1933.109359 8.674953524 3.615647351)
(1932.490088 -4.690371615 -3.151773032)
(1934.783492 -0.9868425889 -32.02227784)
(1932.156726 -6.038220264 -32.46672194)
(1930.598724 9.668417111 -37.22481924)
(1933.892811 11.32952814 -8.981808477)
(1936.512661 1.249097035 1.457226605)
(1943.537446 -14.1444208 0.5673578892)
(1948.583826 -19.48117725 -4.04797021)
(1938.34251 -12.61093061 -6.438455685)
(1947.908525 -26.43766706 -9.733153124)
(1958.008795 -23.41494038 -5.194936689)
(1955.301939 -15.92837467 -5.697087138)
(1952.142695 -9.707755652 -8.687537663)
(1932.976547 -1.791423215 -21.31703557)
(1931.996638 17.3712366 -21.44797307)
(1935.174706 13.77335905 -17.61923612)
(1947.338587 -0.941284521 9.699672755)
(1938.639647 -3.711593176 6.774314434)
(1937.73159 -0.8392889613 1.580327698)
(1952.507966 5.913347833 0.4046419152)
(1946.336787 -14.78314093 3.230873666)
(1957.275179 -12.10367757 -1.696748035)
(1961.816699 -13.61862143 -24.80889753)
(1965.816074 -20.46603847 -24.82382003)
(1958.374946 -28.72525545 -18.48465582)
(1952.551278 -21.46432808 -7.998963461)
(1947.882253 0.6095615549 -13.29201896)
(1950.310426 4.772709749 -5.509539722)
(1957.062735 5.673855995 -8.555957375)
(1957.537444 2.557217493 -8.284510378)
(1942.451124 14.63080594 5.306558553)
(1933.390328 -1.284443041 5.886740093)
(1936.212631 1.926901494 5.831782853)
(1934.539583 1.635442336 3.574450467)
(1957.128085 -2.857219214 7.580533339)
(1957.989296 -1.593606848 -1.57312255)
(1976.223915 10.81241286 6.879661379)
(1962.894243 27.53391933 7.573483052)
(1952.030659 11.42592703 0.07738015543)
(1936.071966 -5.772380833 4.177095466)
(1941.870379 -16.44758261 7.113970181)
(1950.227171 3.845586343 2.447274313)
(1960.146558 12.48005956 17.25056948)
(1948.119515 21.47922081 8.017483467)
(1944.954261 -1.612375677 1.48632672)
(1945.02798 1.088466306 0.5726031069)
(1932.531043 3.24716071 -3.146282223)
(1935.588437 3.421038749 -11.77107591)
(1939.183921 -0.245632016 -16.31791623)
(1952.37448 4.73588466 -16.45868014)
(1945.374541 19.72551142 -27.36366914)
(1944.30577 23.03985562 -33.22430665)
(1955.868621 26.73287367 -4.189127607)
(1957.552533 19.84332026 -0.7693755274)
(1949.207991 10.9429682 5.090398238)
(1967.257314 8.836721293 5.683656091)
(1940.141102 11.46737252 -10.79261827)
(1958.301207 8.724333839 -1.353894406)
(1969.695268 7.034309769 1.59687276)
(1967.74427 7.982165652 16.47137803)
(1948.710219 46.41385652 18.13916148)
(1932.234504 39.82284672 22.21137556)
(1937.656812 25.83073431 10.49103047)
(1952.393324 4.392645353 21.05260759)
(1957.033556 1.889093468 14.61284829)
(1970.433703 -3.146482552 17.04783404)
(1966.366105 -15.81739686 4.297851385)
(1958.129826 -10.02985928 -12.00798605)
(1952.675646 -5.890217022 -11.85848535)
(1944.511528 -24.23609551 -27.79738596)
(1950.678204 -40.00329689 -33.06404427)
(1947.701428 -24.00204254 -28.79625692)
(1954.128394 -14.98770136 -39.08735095)
(1953.270833 -4.80920859 -19.23835989)
(1955.595721 8.71058406 -19.8486519)
(1944.599747 8.172769001 -17.45575046)
(1953.808954 8.244388978 5.371879271)
(1959.568764 41.89567502 5.741777344)
(1965.297326 20.9150466 9.860744867)
(1970.414977 18.03839856 5.413831832)
(1960.766855 -8.353803326 -3.28942216)
(1955.431766 -4.767670538 -6.011280206)
(1953.421814 9.362057524 -29.99133092)
(1944.822386 9.78050193 -25.32006259)
(1958.403674 12.57333227 -22.02837872)
(1932.357852 17.80552107 -19.64498957)
(1951.138138 7.877566207 -12.21323222)
(1972.414381 6.155084884 -13.43903605)
(1968.800877 -6.555624543 -12.8696268)
(1958.906694 14.71026984 -10.67699919)
(1956.90529 18.49792246 -15.03058837)
(1954.283277 0.09183540837 -9.333515856)
(1945.322512 -5.13057535 9.679749628)
(1943.031101 0.3473531807 17.15579656)
(1946.139367 -3.590548496 0.2232494783)
(1952.849573 -1.151447689 0.6241196657)
(1935.827312 -2.456643336 9.222931091)
(1931.690457 -4.716301233 8.621779864)
(1932.186589 1.230763896 16.36867813)
(1931.481229 23.64913577 23.33223009)
(1946.064703 15.48780618 31.95749078)
(1942.427215 2.408292487 7.536071102)
(1933.012495 -2.310646387 11.18582966)
(1934.934409 -14.49439203 16.88472623)
(1949.967917 -4.660123361 -7.634632409)
(1945.648939 12.611514 -5.833257967)
(1936.983183 5.583172433 -11.29128681)
(1942.998628 10.52791638 -8.995695492)
(1948.671783 5.632332698 -15.84865853)
(1938.212428 -9.597605503 -14.76238087)
(1936.959674 -11.63690415 -7.592706617)
(1940.781783 11.41647627 -0.9240625933)
(1939.439016 15.34539123 -7.823962144)
(1942.269556 -0.2291633043 -8.707370325)
(1957.683038 19.63524262 -0.9393188363)
(1946.459561 13.83463574 0.8983547661)
(1941.076917 8.923223456 4.021470912)
(1940.583533 10.19229801 3.014788156)
(1941.224397 11.40281922 6.872151344)
(1945.002619 5.774500573 1.52876849)
(1942.139572 1.14214642 4.525128682)
(1943.726393 11.70135667 9.724239904)
(1958.799749 7.096013984 -5.92716208)
(1949.2677 0.2151775321 -7.687022398)
(1939.237488 4.95774913 -11.77642392)
(1928.214032 12.28548086 -12.00839221)
(1934.884023 1.313651806 -19.51176316)
(1936.295956 9.20340499 -11.68024326)
(1939.169667 10.02084611 -11.93573821)
(1951.695941 18.27043172 -20.08730316)
(1938.621766 0.0301438888 -32.53011093)
(1945.525238 -0.02169041601 -34.17302137)
(1959.155745 -11.57608057 -44.78239673)
(1956.052592 -9.68238786 -30.07124935)
(1940.718261 -1.902149448 -12.40813097)
(1936.585201 -3.806725647 15.27825282)
(1936.069163 8.126528132 4.611247325)
(1935.775021 -7.999807938 9.935846919)
(1942.758278 4.650400635 26.95490802)
(1937.199671 10.71846998 13.36896874)
(1937.728137 17.8583056 11.80432411)
(1938.250083 23.07746373 13.19401102)
(1938.638332 32.38310164 -4.902290898)
(1941.991035 35.83077 -24.64084263)
(1941.829376 17.07486862 -17.01200318)
(1930.918431 9.690005669 -23.58138474)
(1922.025342 10.14385138 -19.80619149)