/*--------------------------------*- C++ -*----------------------------------*\
| =========                 |                                                 |
| \\      /  F ield         | OpenFOAM: The Open Source CFD Toolbox           |
|  \\    /   O peration     | Version:  2.4.0-MNF                             |
|   \\  /    A nd           | Web:      www.OpenFOAM.org                      |
|    \\/     M anipulation  |                                                 |
\*---------------------------------------------------------------------------*/
FoamFile
{
    version     2.0;
    format      ascii;
    class       volScalarField;
    location    "0.0008";
    object      Ma_mixture;
}
// * * * * * * * * * * * * * * * * * * * * * * * * * * * * * * * * * * * * * //

dimensions      [0 0 0 0 0 0 0];

internalField   nonuniform List<scalar> 
5120
(
5.736034166
5.581888148
5.73483674
5.744860802
5.664873324
5.475558947
5.450355105
5.597676276
5.654615895
5.609194817
5.554306638
5.592256584
5.601436402
5.754151839
5.713711957
5.675725326
5.773808422
5.687811328
5.727722101
5.766784587
5.708959677
5.657306299
5.528179913
5.532030965
5.569207441
5.601864124
5.706574802
5.616006896
5.560657342
5.660486502
5.721770914
5.69913954
5.737017796
5.645885813
5.702067326
5.55048848
5.755798643
5.807242316
5.630445323
5.62503768
5.779676148
5.627576303
5.664484457
5.84205798
5.784733525
5.705247899
5.609155723
5.681284656
5.709981273
5.610448134
5.666380928
5.655252831
5.65410828
5.568171545
5.504943695
5.59525626
5.635770162
5.538492708
5.5360956
5.74884828
5.724207627
5.760626865
5.761432037
5.596122607
5.49440293
5.516846694
5.561202569
5.494608843
5.530696715
5.664213898
5.552988504
5.56623474
5.632716314
5.507482488
5.537138368
5.611102941
5.545816832
5.563248358
5.656167767
5.7956169
5.571675593
5.418728407
5.488137787
5.637571315
5.588990282
5.514604949
5.469858504
5.584861205
5.648369858
5.516595148
5.621327861
5.565172977
5.556327087
5.737496339
5.775750783
5.669402638
5.560725079
5.564283635
5.502762875
5.492871858
5.591193036
5.675366832
5.442473536
5.50554441
5.52495998
5.628964857
5.597990618
5.586828578
5.514217855
5.651029243
5.565830082
5.473739912
5.603016045
5.560617095
5.536187834
5.527472293
5.667218033
5.619452844
5.721603338
5.618944494
5.582189182
5.616559059
5.753403793
5.787828195
5.661083358
5.530274815
5.68209234
5.583164731
5.549827095
5.591994407
5.734562581
5.869089195
5.870467209
5.78425585
5.585338041
5.468459178
5.524364554
5.61336223
5.694550252
5.639444558
5.83611386
5.986109552
5.809824598
5.723636313
5.680668671
5.705122848
5.516304937
5.67399165
5.802066854
5.768405194
5.774517374
5.777376534
5.636002252
5.521276506
5.677353536
5.69460494
5.646595754
5.75640665
5.601768942
5.689968461
5.645260244
5.590188171
5.628653525
5.815652507
5.742406894
5.728476398
5.758332341
5.552402231
5.475155142
5.509767155
5.699914496
5.558237585
5.639619518
5.618417627
5.572440542
5.711037434
5.720393898
5.694472596
5.756352725
5.677173853
5.606601385
5.736753045
5.70501556
5.780534109
5.698274018
5.623250814
5.609665207
5.632164624
5.585134643
5.560754096
5.547557955
5.66164194
5.690825809
5.665268316
5.697011418
5.6757983
5.678965064
5.677721247
5.614216082
5.573054691
5.491904013
5.491160782
5.583932233
5.734526176
5.790591929
5.774179593
5.764526555
5.625243143
5.735210558
5.634097468
5.447023376
5.46823447
5.57599802
5.675292432
5.648457909
5.474000786
5.463843667
5.430607935
5.492987331
5.499044102
5.628684723
5.493813891
5.446540327
5.444433581
5.578336207
5.574080225
5.662286505
5.614496838
5.5650352
5.660126529
5.774197862
5.846843757
5.799793675
5.631329656
5.640764783
5.49283285
5.435157569
5.597134308
5.440674799
5.586996279
5.694088938
5.764303822
5.776814203
5.720948875
5.738803501
5.792652059
5.646946919
5.613364972
5.594593656
5.443752806
5.378028935
5.355312843
5.473101972
5.40062677
5.454607265
5.457173185
5.466392717
5.39874103
5.600550305
5.791472275
5.601404203
5.644498506
5.578234372
5.517730909
5.575999284
5.462462096
5.573276351
5.758595388
5.713849307
5.767294242
5.500142759
5.44591637
5.418798714
5.564216224
5.6822591
5.591303894
5.534416115
5.499716523
5.694213352
5.605424435
5.611469203
5.58046139
5.616760272
5.595308505
5.568000959
5.668904738
5.565116249
5.599145177
5.653107784
5.552418908
5.495369181
5.58265595
5.622925023
5.49254413
5.40643827
5.435216517
5.458689287
5.593570197
5.721976557
5.681234222
5.876025286
5.906848792
5.670097732
5.576459134
5.679837425
5.766915632
5.720399083
5.553234514
5.555635826
5.751635578
5.71201247
5.570047199
5.382260105
5.366591334
5.482000907
5.569885945
5.714992092
5.717477766
5.581099455
5.628501619
5.815363055
5.809487719
5.793925278
5.843245969
5.670437796
5.72861736
5.665544426
5.629257399
5.638263197
5.69048761
5.696412508
5.875300557
5.773015156
5.784983046
5.640367919
5.705568756
5.658701915
5.758264966
5.657912008
5.752908268
5.709564462
5.72712589
5.572278123
5.495681526
5.65525742
5.545427653
5.586672594
5.614429618
5.734846627
5.707048938
5.666374976
5.768220738
5.804444531
5.674149009
5.669661069
5.746702493
5.603000469
5.505256998
5.689643804
5.675975158
5.578373008
5.548344309
5.661139602
5.570423822
5.570922098
5.583284803
5.569476071
5.643480783
5.745977259
5.763860314
5.742514507
5.6705344
5.611937237
5.703345744
5.756070577
5.572934485
5.52931151
5.618149386
5.514042529
5.54775146
5.68790526
5.604141335
5.601289772
5.570443806
5.69890446
5.603813141
5.563628162
5.453869677
5.364030033
5.376827862
5.512051488
5.532923207
5.527812984
5.478289553
5.613789618
5.607534412
5.810620715
5.754878981
5.790663831
5.738741119
5.568844438
5.57805988
5.554157696
5.515312135
5.573050598
5.481932145
5.525190999
5.61827479
5.619610909
5.515381601
5.468368252
5.414076699
5.462237859
5.646071168
5.612346154
5.588941166
5.624202845
5.639598862
5.577125203
5.549130845
5.629268356
5.49631651
5.453716148
5.389312789
5.505419088
5.524523519
5.564927144
5.612210278
5.640598688
5.697475764
5.762909813
5.691473502
5.737762932
5.635229474
5.601181334
5.637692717
5.705237987
5.668845553
5.702499774
5.738265255
5.658384102
5.617025433
5.59199414
5.577107867
5.628281081
5.51410025
5.576799806
5.709785915
5.804242523
5.728822163
5.510255051
5.531444435
5.411974931
5.434722442
5.568708663
5.616501501
5.484647532
5.611698923
5.635331413
5.70681603
5.778639352
5.721087161
5.737223662
5.747243882
5.72406076
5.802719579
5.812381998
5.601060472
5.655776807
5.603904052
5.656847483
5.702817851
5.684094956
5.861199578
5.768171682
5.649957219
5.777890915
5.802067564
5.663321312
5.668203268
5.470815638
5.585782061
5.613983049
5.604796677
5.572676819
5.532417502
5.59605433
5.85641183
5.886441043
5.895289848
5.855946164
5.693467587
5.615532506
5.557249109
5.652049802
5.680922889
5.569145301
5.472856232
5.479601851
5.419397985
5.59815864
5.583281683
5.587193172
5.537875508
5.568272146
5.541412414
5.45264294
5.382423607
5.46913779
5.670664837
5.744130145
5.672184371
5.858622946
5.760783232
5.608907954
5.575050175
5.673797386
5.590368707
5.514184378
5.542641761
5.573917482
5.674232512
5.574018559
5.728908126
5.65042674
5.724367004
5.636871803
5.565791569
5.624415332
5.657484601
5.716394413
5.746403718
5.638383093
5.57907021
5.725262532
5.704061027
5.54815668
5.646512603
5.550829543
5.50101733
5.693634721
5.679307414
5.708422721
5.503706058
5.46762415
5.535810935
5.515754392
5.574331187
5.642935265
5.632854229
5.743256402
5.669689582
5.691502218
5.736381455
5.666062134
5.733564507
5.805320874
5.864024096
5.846192599
5.84556209
5.509785092
5.482332852
5.615273648
5.699857974
5.65477529
5.476007465
5.538333154
5.649819104
5.592613188
5.581875238
5.539225731
5.585640478
5.597716948
5.603568508
5.6343585
5.598547656
5.716181973
5.721513146
5.709314758
5.571956049
5.774482791
5.800250882
5.633159662
5.723511575
5.642702757
5.807058732
5.676950645
5.582612309
5.619648954
5.639351367
5.63654515
5.489990318
5.47181747
5.415888066
5.479664214
5.598815524
5.667440753
5.521806543
5.473180031
5.707029522
5.640185115
5.771988477
5.713838376
5.694193017
5.528752966
5.447683782
5.557194455
5.659241025
5.645910469
5.637167496
5.630521751
5.514801343
5.58494131
5.633723887
5.609336109
5.472759113
5.516596203
5.650399113
5.645209484
5.666284653
5.560471438
5.477685494
5.644471626
5.582023496
5.778393293
5.890961855
5.798786646
5.767119928
5.746836587
5.70301705
5.655834905
5.664697087
5.661250893
5.653710739
5.629485761
5.60421459
5.505384994
5.577163732
5.639087525
5.552334913
5.646501762
5.648114232
5.623555478
5.703448775
5.624898954
5.498282263
5.464189275
5.493084827
5.619239518
5.613185469
5.732301301
5.55875662
5.564404559
5.651364879
5.706179936
5.720338594
5.715964892
5.56972259
5.605779025
5.702978496
5.497689285
5.642464806
5.603279836
5.596706601
5.722990933
5.70687206
5.666811228
5.664205102
5.814933146
5.77054567
5.771309817
5.635091375
5.700278151
5.704205303
5.708221582
5.69210243
5.820537531
5.770633373
5.798205396
5.619616848
5.726171114
5.669007034
5.692139171
5.716540003
5.676357651
5.647202055
5.65482704
5.636020638
5.767237052
5.785807386
5.808384285
5.734749794
5.821350804
5.66664684
5.482531081
5.489415325
5.484774038
5.554790821
5.658903438
5.669876531
5.509732615
5.629729564
5.81790598
5.745020342
5.619395886
5.575259997
5.651405102
5.723877754
5.725987026
5.7153987
5.644117949
5.707554758
5.700227865
5.742783466
5.767583021
5.759666496
5.740785629
5.748820911
5.621203006
5.536929089
5.422178428
5.488785828
5.681614557
5.689383946
5.647112552
5.672265986
5.640612273
5.643228703
5.694540687
5.677527192
5.598452437
5.576731051
5.59023457
5.534272426
5.599507571
5.622021652
5.493438241
5.384833418
5.412590926
5.407215017
5.620999993
5.739109427
5.521342992
5.495454259
5.475583355
5.574072019
5.642729669
5.663024436
5.630090601
5.622942926
5.649414859
5.689886173
5.750743153
5.668916656
5.678508034
5.569189635
5.645979994
5.743844653
5.731782049
5.496637326
5.481081442
5.534380976
5.555016707
5.643896999
5.655386349
5.768814851
5.697192022
5.713081959
5.62282547
5.689648268
5.717393035
5.738952517
5.793048018
5.673709459
5.617270563
5.648925644
5.635629625
5.594920327
5.583082574
5.466650051
5.342147281
5.380203067
5.445717384
5.545023874
5.663469319
5.726508032
5.635152135
5.631741889
5.666644318
5.574955064
5.703247418
5.647833073
5.636867137
5.634252451
5.4449942
5.584054696
5.675853889
5.629416163
5.632634244
5.601000969
5.739431019
5.62275007
5.64694157
5.462451055
5.448472368
5.474327474
5.515040625
5.584023516
5.605385836
5.679137319
5.697303048
5.735997789
5.624098168
5.620726092
5.700047223
5.655357831
5.535950758
5.650206426
5.548020879
5.552781804
5.575734272
5.552424575
5.630439565
5.528145958
5.404646368
5.510467579
5.701798802
5.668228544
5.543806255
5.46311182
5.599657489
5.562958038
5.520964759
5.652330665
5.670042597
5.574036008
5.589053445
5.464941118
5.60948818
5.702258627
5.464569622
5.606763963
5.67720052
5.543979788
5.416231272
5.414692609
5.438192922
5.444029172
5.528593217
5.480569608
5.547214266
5.53125469
5.556532531
5.572584696
5.639027944
5.465225558
5.572372076
5.709153206
5.590320998
5.484606649
5.690919978
5.349190314
5.437141012
5.487025782
5.607310707
5.486260155
5.508617738
5.463201554
5.479064047
5.497580567
5.468646149
5.546053832
5.597952005
5.784109974
5.690823769
5.885238435
5.845249773
5.749331876
5.58039499
5.552081011
5.47611386
5.45078723
5.456158086
5.397536151
5.447045687
5.515672479
5.439165398
5.538428562
5.560230248
5.552357183
5.623606507
5.599127944
5.508818073
5.450213304
5.568061655
5.636960852
5.616613831
5.725869904
5.683338698
5.531878
5.626409193
5.64843335
5.677399911
5.569936927
5.727564559
5.716375496
5.704407986
5.625582115
5.62156767
5.77425926
5.605659894
5.535820193
5.500879658
5.545058771
5.514290521
5.43565819
5.585957227
5.569968945
5.497494177
5.595703081
5.429756025
5.510524128
5.603729421
5.618853167
5.567911582
5.485640259
5.504581531
5.500651436
5.636847892
5.529944091
5.438079511
5.653975021
5.623409513
5.715942093
5.798147463
5.737577223
5.58620067
5.540210473
5.423064984
5.311158775
5.732262239
5.606472342
5.599540517
5.528410847
5.571653971
5.593054795
5.542009162
5.564792494
5.570999868
5.521852929
5.50985728
5.507630051
5.685351653
5.559814119
5.605390566
5.524720131
5.552088949
5.498332518
5.522137891
5.482879613
5.679704198
5.749982756
5.720969081
5.601936168
5.62549854
5.551584274
5.590479341
5.612671108
5.613914085
5.617418574
5.674528761
5.772231528
5.73241641
5.860241644
5.81682533
5.692901677
5.636693823
5.836337547
5.792644623
5.715621905
5.587438303
5.626231077
5.705651043
5.811970407
5.80346994
5.77543223
5.716763634
5.726111446
5.540872328
5.506119151
5.573009214
5.486513904
5.511678381
5.57649006
5.740097109
5.795860983
5.699864548
5.654972653
5.572848519
5.503921606
5.769473684
5.625192729
5.687906917
5.822798822
5.831192161
5.902899986
5.836821132
5.781483104
5.74766753
5.620936367
5.443422868
5.570522924
5.685878028
5.580403629
5.431452727
5.570739571
5.612613301
5.683958338
5.724481178
5.682551425
5.659058735
5.685198972
5.506186503
5.464481822
5.654382088
5.675509429
5.716326956
5.675964571
5.555655052
5.577510021
5.711856829
5.583606038
5.625676759
5.622884134
5.653279413
5.485943989
5.469883921
5.609207631
5.652198539
5.756174409
5.492907883
5.544453145
5.406028312
5.42741696
5.484966556
5.536905995
5.583309292
5.60705354
5.52286285
5.560866762
5.544504282
5.706913019
5.638691032
5.627543634
5.679004576
5.831455648
5.772244477
5.701557443
5.515148781
5.491461722
5.553684148
5.57727332
5.611164431
5.607406862
5.657152931
5.743341273
5.880644248
5.722917228
5.693539035
5.568869084
5.556537953
5.606679356
5.589946175
5.561776118
5.509953263
5.624521516
5.691402022
5.446233594
5.469002911
5.595341712
5.721544028
5.650955048
5.65099309
5.662719096
5.595528402
5.557579845
5.722695159
5.698930064
5.727688515
5.642375608
5.758364366
5.683800194
5.553629275
5.680154742
5.766479104
5.667680346
5.621467245
5.591924756
5.616279512
5.548036614
5.633127055
5.716765917
5.670187143
5.697107225
5.631922671
5.625870683
5.565600809
5.64417982
5.738720537
5.763135655
5.67536059
5.652322993
5.528542129
5.565369409
5.621642524
5.751188017
5.668724072
5.719719488
5.576736626
5.496463865
5.566805253
5.445807052
5.33852498
5.460216267
5.467377818
5.400795666
5.580884745
5.660236856
5.561654456
5.440232764
5.437644627
5.381245919
5.487273751
5.644892077
5.697167021
5.591245725
5.567769377
5.506577784
5.656024696
5.694845227
5.548200001
5.535302236
5.556496512
5.600921854
5.591561501
5.564673017
5.408773077
5.47660525
5.684153193
5.608443957
5.601092211
5.685930705
5.671137879
5.772628253
5.545761153
5.623457931
5.558302098
5.493772798
5.479893326
5.444326654
5.403095958
5.389798897
5.254861172
5.464884692
5.453656638
5.571201422
5.701735313
5.786017375
5.598576434
5.650020234
5.608999284
5.594837934
5.481716163
5.52080574
5.572113266
5.526659358
5.567696725
5.500890907
5.488482191
5.440473661
5.655467481
5.701462866
5.576210328
5.486261107
5.460893644
5.579975148
5.567078438
5.684812249
5.624238113
5.541705657
5.493871839
5.620629607
5.667482979
5.716502006
5.769505238
5.692627023
5.82474112
5.873157057
5.850356265
5.847452364
5.797404382
5.726790591
5.66649501
5.532129521
5.520586695
5.679120234
5.731176326
5.736979544
5.606231408
5.5766981
5.625975411
5.458567825
5.596624549
5.619534935
5.686262577
5.796203833
5.706057862
5.590450654
5.639273144
5.724498982
5.613668357
5.608387799
5.632585711
5.659321407
5.694615898
5.60650983
5.488463914
5.526017724
5.650362508
5.516500589
5.608981613
5.656439603
5.680302913
5.676751104
5.541232875
5.612476881
5.664166513
5.745101505
5.728197762
5.759119143
5.591165649
5.523711712
5.551232539
5.675627421
5.713307277
5.645352844
5.774437666
5.703599753
5.655531001
5.776501268
5.743311819
5.684410155
5.639983091
5.587109104
5.463291126
5.493815179
5.672411609
5.613408268
5.533521937
5.670779647
5.504830613
5.504384299
5.460697089
5.363495356
5.453494763
5.600266562
5.573995175
5.482333362
5.438421905
5.419597944
5.522532942
5.650273818
5.547348636
5.512205281
5.464787173
5.408738675
5.334396148
5.525833911
5.520400226
5.567755025
5.418104731
5.401837034
5.357592415
5.422398856
5.453096795
5.486266015
5.460479331
5.51842588
5.637757566
5.404017794
5.502405849
5.541928283
5.572992578
5.471500484
5.536586692
5.603755984
5.534977643
5.574414418
5.498100759
5.444294704
5.61984598
5.669783397
5.643386805
5.527469965
5.572541879
5.575355989
5.526803107
5.454672711
5.565087521
5.591681195
5.561088522
5.479176063
5.459145473
5.541139758
5.68078783
5.644185532
5.544518928
5.573385103
5.584354974
5.659617046
5.740864792
5.747157926
5.794608165
5.646540693
5.483144638
5.584993836
5.577986225
5.569705998
5.460746553
5.585364844
5.805918012
5.669367572
5.69824261
5.643334831
5.588413123
5.604882107
5.6768933
5.812271945
5.698296727
5.700010049
5.599733955
5.555831242
5.596211401
5.538025465
5.4086548
5.415066702
5.449337717
5.547876592
5.638560424
5.50037814
5.535089734
5.621903402
5.546237421
5.487494123
5.46275138
5.487091471
5.512094655
5.470462245
5.545564212
5.672639024
5.477260117
5.616030115
5.668595157
5.816014019
5.648101391
5.560862797
5.586593299
5.580653513
5.618128682
5.63715981
5.592825119
5.500680004
5.551724701
5.59310209
5.618055819
5.512551536
5.488430703
5.564710371
5.51885411
5.465574743
5.59637164
5.427434335
5.414355078
5.514858543
5.655516193
5.571557973
5.347959456
5.348011403
5.479671425
5.490973029
5.515476106
5.537211759
5.476672462
5.400117082
5.378940682
5.47171101
5.520400994
5.474122752
5.474431521
5.537525567
5.416656954
5.514831409
5.552991598
5.507650223
5.626397365
5.487691861
5.387380376
5.531864087
5.537436657
5.582984482
5.574640864
5.628281988
5.572978676
5.50365384
5.444613077
5.514767514
5.539945277
5.577026995
5.586026472
5.543512495
5.613586439
5.574858075
5.60319799
5.564558704
5.551015484
5.520215516
5.571522141
5.701479645
5.731048377
5.63145242
5.574544355
5.55257138
5.528924136
5.504861297
5.698330318
5.867857378
5.838699783
5.529266584
5.627586037
5.58316866
5.558506442
5.623747186
5.557844092
5.531306035
5.453626225
5.687292072
5.710263593
5.657705147
5.610612494
5.576639048
5.657546688
5.714737288
5.673420557
5.675689101
5.523853966
5.545159189
5.526511174
5.674376457
5.68321469
5.610396083
5.634768372
5.593043818
5.766820629
5.808738591
5.758110004
5.634092694
5.663372266
5.525913835
5.585354225
5.717799814
5.759033835
5.652128729
5.689762485
5.627414383
5.630765255
5.603486761
5.598345238
5.607913371
5.550553714
5.539693414
5.690513414
5.779524665
5.725160463
5.597720627
5.73480492
5.729656488
5.782749846
5.639316566
5.658879683
5.719240302
5.765988766
5.716967357
5.601395924
5.488467486
5.664183081
5.787420326
5.805595361
5.71085775
5.631796279
5.745760051
5.752699208
5.865592395
5.766411069
5.78766948
5.703827426
5.624597089
5.713042119
5.577515342
5.623814568
5.688223443
5.672756356
5.723140306
5.67446787
5.827601308
5.77015305
5.765333342
5.750790695
5.897700869
5.842983756
5.779496574
5.713059078
5.615674624
5.635601096
5.759729789
5.831810317
5.666952343
5.624725356
5.744572958
5.61312516
5.653203801
5.694879543
5.668273841
5.62294948
5.7153266
5.698823866
5.672320805
5.659100912
5.637485515
5.671201483
5.634817717
5.670672318
5.719621077
5.661854738
5.77658546
5.764833542
5.545296407
5.59423197
5.557692783
5.56463108
5.729831267
5.833004637
5.811902095
5.926430539
5.878282092
5.768948209
5.624363835
5.558064152
5.463749177
5.571508803
5.57159458
5.669035904
5.764373099
5.728399201
5.631917903
5.561217736
5.509553803
5.533297425
5.724517896
5.807297562
5.716563509
5.589288667
5.550563679
5.444671191
5.400638922
5.567521685
5.477027533
5.495788734
5.531845316
5.580932966
5.539164845
5.746043131
5.668327227
5.534918552
5.549600989
5.468788282
5.467092812
5.494054333
5.650384342
5.788342071
5.747549752
5.691212704
5.466178478
5.581137425
5.534302841
5.524871717
5.535520937
5.406175553
5.525538883
5.688309461
5.823266388
5.720412903
5.72654799
5.732054129
5.750897314
5.784648174
5.735726178
5.640763867
5.553369366
5.436686895
5.471254312
5.519419566
5.574083744
5.650277615
5.722149418
5.602713447
5.565930494
5.600259706
5.480680112
5.546997196
5.418578873
5.615847426
5.662369179
5.582616545
5.601870005
5.627814669
5.725218334
5.65577863
5.605112145
5.813754174
5.630795318
5.451664288
5.499687301
5.614937575
5.477257469
5.470590945
5.661310149
5.760598339
5.726889527
5.673592732
5.695658894
5.459112368
5.652437586
5.703289234
5.747343745
5.608585549
5.507978193
5.498738551
5.580424041
5.649709416
5.568796954
5.500859845
5.445754203
5.50281474
5.591255574
5.614581796
5.738640366
5.736933712
5.698130195
5.650456617
5.612044382
5.61486262
5.497754189
5.448112321
5.581071029
5.673305871
5.555470933
5.560984251
5.557023839
5.547531047
5.580633428
5.627372056
5.573887787
5.530207607
5.497293778
5.519533804
5.546350859
5.464880365
5.48232531
5.547469738
5.499328315
5.704619243
5.565939095
5.408744831
5.264644823
5.354631015
5.359304303
5.397110696
5.431785091
5.504948735
5.506379936
5.400624377
5.429841858
5.430294169
5.473157785
5.514350184
5.461713767
5.641440043
5.587034877
5.483162316
5.572218407
5.561042836
5.605176332
5.676345925
5.691084286
5.636855992
5.69412779
5.760988848
5.675900567
5.401450957
5.382934042
5.504780869
5.569233312
5.715452937
5.587716459
5.556906258
5.647305301
5.552498274
5.560140831
5.67964768
5.72300738
5.69765461
5.710022499
5.702252404
5.608404704
5.516948376
5.373708064
5.299820263
5.335578432
5.381909557
5.376857241
5.309801552
5.416907826
5.572295634
5.688440901
5.662094032
5.495471863
5.455419702
5.467965074
5.442476952
5.55526126
5.440352641
5.436225564
5.456205759
5.480315092
5.481824577
5.608857458
5.733252524
5.718831977
5.668297485
5.631729757
5.524443507
5.419890486
5.382871119
5.44618761
5.578993188
5.608602196
5.599388019
5.641541334
5.562134067
5.504378116
5.54090715
5.515728385
5.475068704
5.448237197
5.478187066
5.571219283
5.463791661
5.425788785
5.449157931
5.586580256
5.670045369
5.617047174
5.705925219
5.794472899
5.804065253
5.63297978
5.721043049
5.650088294
5.582217009
5.617167587
5.748648623
5.744598564
5.831857289
5.908851778
5.567640692
5.50557107
5.528530964
5.607145168
5.660691977
5.681144134
5.727139442
5.6111205
5.656766158
5.567105758
5.61143405
5.65370684
5.393437822
5.510525254
5.616416531
5.798479537
5.690578759
5.747727641
5.561332054
5.485927132
5.618551343
5.633123268
5.620557098
5.619383594
5.685588087
5.616604849
5.568390197
5.720601452
5.532631788
5.564180628
5.612337327
5.60820724
5.612533218
5.624355834
5.574579032
5.630215523
5.651842875
5.661472089
5.638134499
5.670447936
5.597077894
5.555326333
5.304998609
5.524834933
5.582110368
5.563739095
5.525838062
5.664182065
5.626517281
5.638392109
5.479833593
5.550723017
5.546857649
5.64119613
5.634809458
5.567938804
5.41518334
5.43730176
5.508089923
5.542695938
5.459765685
5.545649395
5.50065442
5.388702071
5.511553189
5.55986556
5.494611158
5.463652323
5.577809916
5.670183137
5.60694832
5.655419873
5.770366754
5.65277782
5.486311087
5.411760869
5.68083672
5.693170091
5.590662182
5.496654444
5.557355057
5.681237876
5.650130859
5.588031899
5.513156857
5.465145894
5.531832944
5.493321267
5.514634542
5.629336609
5.721039437
5.713623389
5.699342724
5.82663879
5.75171123
5.719595268
5.978814393
5.876258666
5.700031717
5.656577188
5.691766422
5.650826056
5.700947317
5.714759416
5.676928802
5.68939096
5.52983699
5.58355976
5.570014508
5.530589974
5.615397976
5.512661597
5.623006005
5.568863701
5.564965256
5.741735362
5.503980398
5.661372493
5.694279706
5.61718434
5.569274308
5.621546869
5.63405451
5.604329975
5.59689312
5.609858868
5.705303415
5.644570721
5.639604564
5.593899086
5.693328217
5.639485471
5.653406216
5.565624955
5.484837414
5.541719542
5.51410642
5.604058421
5.590752555
5.548537801
5.674227196
5.624143353
5.622827918
5.547211807
5.647022073
5.60044617
5.563275421
5.660939789
5.700052046
5.670563044
5.627211521
5.571993737
5.576005901
5.579806429
5.624223089
5.662845201
5.361365438
5.480648807
5.728553362
5.639274087
5.456581234
5.42276482
5.524030979
5.415857973
5.303546051
5.474379181
5.627046167
5.536959589
5.577624973
5.660939073
5.675287409
5.5853111
5.391247443
5.397464225
5.450449551
5.457466221
5.752715413
5.610412431
5.54850703
5.446570625
5.497170287
5.427946448
5.414905354
5.391267502
5.614633977
5.667627719
5.647025006
5.589338158
5.454814169
5.520217002
5.511831947
5.562623655
5.66903962
5.659228577
5.659959236
5.721246579
5.517241665
5.509078844
5.47830309
5.605682456
5.486418109
5.646052757
5.770066749
5.713238809
5.637599813
5.583862945
5.49921583
5.497074592
5.563592989
5.55987603
5.641591887
5.633242545
5.602088408
5.688068656
5.670660798
5.588079035
5.411321486
5.43855483
5.490925397
5.544174988
5.539119131
5.4877777
5.388822145
5.393653603
5.553459271
5.685003099
5.761787583
5.665825561
5.713446849
5.644113887
5.691233007
5.600258692
5.579228831
5.555616925
5.564559978
5.526154567
5.755006528
5.632786503
5.623696844
5.548068611
5.490379847
5.658548188
5.610615084
5.457224768
5.463078361
5.455695735
5.44340948
5.450272905
5.467384732
5.626117245
5.562555323
5.526656008
5.579362361
5.560669569
5.656404241
5.610215769
5.574816706
5.623964479
5.585446761
5.516648956
5.55185573
5.507090926
5.527176579
5.531471893
5.49334916
5.451358294
5.487228942
5.562355692
5.563460616
5.458411919
5.4697288
5.481689212
5.489154521
5.543210842
5.456031167
5.526843616
5.570429594
5.530859347
5.55396912
5.598412176
5.553138112
5.543196832
5.543834951
5.508894867
5.617775946
5.489295525
5.514319198
5.549151629
5.572216428
5.497530475
5.570743859
5.558137409
5.607662779
5.463990292
5.535870386
5.592568431
5.464744295
5.637764094
5.512357
5.491723326
5.550104452
5.680096301
5.720692273
5.626950035
5.634031535
5.605491088
5.63125183
5.652472228
5.632815796
5.513147788
5.548815782
5.489574944
5.532831166
5.534633125
5.530144581
5.473498469
5.638102943
5.611417037
5.69654156
5.629386762
5.686180504
5.646358861
5.64063984
5.640135064
5.635734819
5.588940451
5.556537027
5.603035106
5.516023443
5.59135477
5.389548522
5.444594975
5.404157373
5.444007583
5.454861895
5.545956105
5.736453195
5.722094605
5.596658998
5.836554888
5.699541333
5.658393418
5.611651843
5.616550577
5.615438719
5.65827195
5.624096222
5.640571055
5.884070255
5.802607132
5.712963423
5.767180282
5.808241925
5.781847829
5.820071699
5.90073366
5.532109041
5.55288858
5.558577702
5.658958553
5.635496238
5.542278299
5.575817435
5.46613408
5.486288833
5.683923988
5.760665242
5.634863378
5.567734113
5.60565405
5.733623344
5.863113395
5.873259204
5.744038326
5.617571893
5.573590686
5.673041031
5.558055166
5.533337273
5.481768196
5.456390994
5.504992239
5.701203461
5.642314805
5.576928461
5.510936794
5.550214999
5.67253738
5.617693711
5.59492472
5.58840466
5.571829045
5.48396827
5.592185815
5.702319384
5.725209089
5.543160017
5.693250604
5.658144949
5.65223701
5.73883461
5.833529517
5.724243238
5.595128851
5.651360419
5.616134729
5.663384135
5.489900187
5.584671794
5.825013207
5.769475297
5.778613787
5.717598532
5.680503172
5.718718788
5.658922734
5.488024034
5.374669419
5.552147409
5.568008507
5.602805726
5.675103214
5.652913899
5.616767321
5.622360489
5.579418051
5.535280102
5.689004077
5.695358912
5.578825123
5.643747164
5.733648397
5.68009404
5.764403611
5.740762249
5.639099863
5.576838494
5.443582979
5.428196355
5.42491668
5.534428704
5.505006557
5.557677671
5.655676247
5.715699107
5.726967919
5.758066374
5.609677927
5.581075284
5.586516864
5.618465564
5.556500672
5.607279052
5.699542072
5.639845021
5.533713391
5.505315188
5.480680632
5.472616023
5.681286564
5.717906569
5.769962865
5.682577701
5.758414474
5.563901112
5.575589134
5.551361972
5.664124985
5.634067571
5.692649438
5.674049563
5.599712153
5.728639965
5.830312911
5.783882918
5.587024167
5.744457404
5.547658466
5.495107792
5.514640336
5.637173533
5.724233818
5.73043113
5.658678616
5.639339877
5.420403719
5.475797946
5.486527031
5.50624689
5.33395574
5.473545333
5.473760731
5.333147213
5.43274853
5.413117418
5.520182288
5.699515266
5.622209556
5.59421678
5.553418163
5.685064225
5.624628496
5.602550186
5.74959815
5.865038393
5.759625867
5.77680623
5.850515566
5.676394448
5.709056307
5.716114554
5.804716109
5.74921582
5.741475881
5.621254493
5.674900689
5.538577094
5.660108709
5.744552084
5.706897885
5.688996571
5.674087945
5.580508133
5.546980693
5.507743224
5.378043355
5.368618273
5.598419797
5.61044438
5.565077345
5.580964893
5.439999871
5.539794956
5.588335665
5.603063522
5.513172544
5.561530334
5.555399146
5.56963735
5.578571951
5.580925293
5.550236374
5.510802761
5.44335693
5.572496595
5.650550858
5.64084853
5.599082111
5.514498861
5.449230829
5.410686023
5.443138405
5.563545324
5.66176657
5.496388512
5.614111239
5.560487143
5.574572299
5.612748374
5.673460972
5.555063232
5.543263516
5.509425227
5.613084973
5.561147994
5.547944464
5.577801578
5.576913346
5.620669448
5.727314523
5.725084087
5.740089569
5.833100919
5.659742308
5.591235757
5.616096421
5.404627557
5.349741091
5.421893657
5.532395081
5.604625797
5.65342304
5.659767336
5.532790197
5.627782723
5.683847538
5.697360484
5.617302942
5.585248026
5.628242047
5.610331164
5.465766863
5.498966078
5.494330882
5.515327373
5.508435154
5.469237574
5.508966675
5.447106557
5.37285895
5.406651809
5.487060319
5.520651094
5.707461501
5.554649763
5.600574394
5.463654945
5.48606423
5.67519843
5.611130405
5.531199437
5.584777934
5.657758044
5.661438123
5.649206647
5.520331429
5.485807055
5.561162222
5.683153671
5.688954896
5.612058943
5.581795499
5.554993375
5.39944855
5.423391221
5.614867735
5.652046142
5.526248335
5.502866195
5.594143934
5.641536969
5.652387904
5.68719053
5.482021778
5.42410254
5.38118288
5.555436489
5.62866301
5.706316175
5.508319055
5.525077758
5.560214248
5.703105712
5.693328534
5.709184152
5.556491726
5.577903118
5.585503897
5.416879515
5.496401674
5.488684243
5.477511487
5.607862205
5.699165785
5.655416635
5.647284487
5.804421573
5.766850574
5.673559148
5.678819169
5.660530681
5.555808776
5.561891219
5.721006967
5.824438396