/*--------------------------------*- C++ -*----------------------------------*\
| =========                 |                                                 |
| \\      /  F ield         | OpenFOAM: The Open Source CFD Toolbox           |
|  \\    /   O peration     | Version:  2.4.0-MNF                             |
|   \\  /    A nd           | Web:      www.OpenFOAM.org                      |
|    \\/     M anipulation  |                                                 |
\*---------------------------------------------------------------------------*/
FoamFile
{
    version     2.0;
    format      ascii;
    class       volScalarField;
    location    "0.0008";
    object      Ma_N2;
}
// * * * * * * * * * * * * * * * * * * * * * * * * * * * * * * * * * * * * * //

dimensions      [0 0 0 0 0 0 0];

internalField   nonuniform List<scalar> 
5120
(
5.623618448
5.457749135
5.589981832
5.668693885
5.520761831
5.357561072
5.332260776
5.543936105
5.575299564
5.442313253
5.370245434
5.462163811
5.496194983
5.614520887
5.569055962
5.608848249
5.705650571
5.506718944
5.518065706
5.571599882
5.623879462
5.582480432
5.416015777
5.42032841
5.480979902
5.546290573
5.65455472
5.509306546
5.470840392
5.606141878
5.612093307
5.541702156
5.61847438
5.586746491
5.576393389
5.455809658
5.638072972
5.714976268
5.556199746
5.566793873
5.632203641
5.521837393
5.599363129
5.768073889
5.741857623
5.628317178
5.49784879
5.522794885
5.595709995
5.483482484
5.58508468
5.586014493
5.567779678
5.430066203
5.427554337
5.505275539
5.558379245
5.411382964
5.421066079
5.626896481
5.629737823
5.717934057
5.76076767
5.567636117
5.463060716
5.390458776
5.404945893
5.387697337
5.447684995
5.646246068
5.43437952
5.5010129
5.54586772
5.530293701
5.492302991
5.50595842
5.378556867
5.391465472
5.570974062
5.711458219
5.500877434
5.342010609
5.400097204
5.580936802
5.546840833
5.467497716
5.374899393
5.486456948
5.550726392
5.510188488
5.664228494
5.557214602
5.644646948
5.740547432
5.743956822
5.635191782
5.485119065
5.560439896
5.410680562
5.425675305
5.467117035
5.601066115
5.293481896
5.373939676
5.49994287
5.667283214
5.516812426
5.523130504
5.43316143
5.605074631
5.564066999
5.567417884
5.555863982
5.463103933
5.387320823
5.377565194
5.556191468
5.466092048
5.54443836
5.489348974
5.466386479
5.512937152
5.690264653
5.764260782
5.591825533
5.48318385
5.658657488
5.562813367
5.58565244
5.543614729
5.665614147
5.741936084
5.76786812
5.710009627
5.551984306
5.44948023
5.471924454
5.490496159
5.599844676
5.591897534
5.779379621
5.898973547
5.701125132
5.650238825
5.641924115
5.611103105
5.48320365
5.630960056
5.787136442
5.691874837
5.710094326
5.779807759
5.672742189
5.512878545
5.625211724
5.597486592
5.601928548
5.61479794
5.509869768
5.592774392
5.625070667
5.54915279
5.530371458
5.722333724
5.619456022
5.631269422
5.701991584
5.449915742
5.328461302
5.349084824
5.477072693
5.337054676
5.566858062
5.611199013
5.474553638
5.627197196
5.667793307
5.6303194
5.657122198
5.620153097
5.55742971
5.617821738
5.60948032
5.730520047
5.678940075
5.541597138
5.510463043
5.544116088
5.487747526
5.489986113
5.55892444
5.647230924
5.605273626
5.544954002
5.572985456
5.678170119
5.599213172
5.606577761
5.634609463
5.54470391
5.442164473
5.389750399
5.504367942
5.575970956
5.651548573
5.662463029
5.707640994
5.601425116
5.684939212
5.537760764
5.379613705
5.429519185
5.571990822
5.727193784
5.681863831
5.476418622
5.469804472
5.46365053
5.460139002
5.495642481
5.596094021
5.494355725
5.387597424
5.366227699
5.493909026
5.509727484
5.59593821
5.498543998
5.519032593
5.584097517
5.782559037
5.846536361
5.772210356
5.595064914
5.679060523
5.450234449
5.390646936
5.574210901
5.444440787
5.54542702
5.510590886
5.628226339
5.603601999
5.551414347
5.523073253
5.585555517
5.487657921
5.527889893
5.581275083
5.390296253
5.305026524
5.23281063
5.37100485
5.339869489
5.376115053
5.377506037
5.46236035
5.387303818
5.525907528
5.665029749
5.450234847
5.49559641
5.515338885
5.374040095
5.433426959
5.381529351
5.513122626
5.696359291
5.687609521
5.73331196
5.414434573
5.378641578
5.349605039
5.459944418
5.603807472
5.522553331
5.501960502
5.501264141
5.630960812
5.470572294
5.552326016
5.531185212
5.611661828
5.637787639
5.61395663
5.662110834
5.486583926
5.474326802
5.59073729
5.491144962
5.472680999
5.509012757
5.517922662
5.494874988
5.387303883
5.325247329
5.408720353
5.558252353
5.707292888
5.689736663
5.830817071
5.77669235
5.49230141
5.428680514
5.494534028
5.556522751
5.575630711
5.477061256
5.395491255
5.681274463
5.56734673
5.430395394
5.263333212
5.211328766
5.42317739
5.425619292
5.563237232
5.567343149
5.522299576
5.526562285
5.778012883
5.767223175
5.733634773
5.736385706
5.573439404
5.695419539
5.572666806
5.531429241
5.633855701
5.675558767
5.61036983
5.769943079
5.610666085
5.701457486
5.56389427
5.622349964
5.560924397
5.728178519
5.627838574
5.801854793
5.608938518
5.654821846
5.4539463
5.350531701
5.552606045
5.44401019
5.494323173
5.548451606
5.611263464
5.616261186
5.615503512
5.676415283
5.769569957
5.556999736
5.568602648
5.645202573
5.42197272
5.331787003
5.514914362
5.505345936
5.504573192
5.481412643
5.553333702
5.525662331
5.540956827
5.551349505
5.537662949
5.631143933
5.705220293
5.64582644
5.683474304
5.635225785
5.541171695
5.602433608
5.625857587
5.439790493
5.357323161
5.469643068
5.407722502
5.482626469
5.627187838
5.582505154
5.53389377
5.440598988
5.641435133
5.581767802
5.514442155
5.402199527
5.301796307
5.277123959
5.441525708
5.44599831
5.483972601
5.421820269
5.583239875
5.557668586
5.763824672
5.716286318
5.732113987
5.702072688
5.48167993
5.543422854
5.599201436
5.492888088
5.494305153
5.425610764
5.490044023
5.575902723
5.555622138
5.447087458
5.411024955
5.370023127
5.404810272
5.534757548
5.547170771
5.68827346
5.654774936
5.627855714
5.499351243
5.444180622
5.492127097
5.357550838
5.318513672
5.371332981
5.480365809
5.37850719
5.502911228
5.562886857
5.569618496
5.635345982
5.653820735
5.58981916
5.623385094
5.534989714
5.472577684
5.530894321
5.646753537
5.569164695
5.646815917
5.676747202
5.522508898
5.470595152
5.429622657
5.412311832
5.470176933
5.384628464
5.469982347
5.679512009
5.794239224
5.683594065
5.459291498
5.47934071
5.360658767
5.363717332
5.450904531
5.519538397
5.387094388
5.54759902
5.625623957
5.632949039
5.634039012
5.605230038
5.626419158
5.643402905
5.656108188
5.809242875
5.761940464
5.534731523
5.555421486
5.54489993
5.608060727
5.585842614
5.563309077
5.716330898
5.634532004
5.522558664
5.660998382
5.744233106
5.534607782
5.545306517
5.360663812
5.46201567
5.477719258
5.52315798
5.553096067
5.493250032
5.510294204
5.753922917
5.841537551
5.804712998
5.710189158
5.52919488
5.42901127
5.397242092
5.538693212
5.578406259
5.484830706
5.350522092
5.368477977
5.337916641
5.536088822
5.563930698
5.502964101
5.424506159
5.477304852
5.483249152
5.388992637
5.271691048
5.363905465
5.547183398
5.52432654
5.458292028
5.705775575
5.565935425
5.402745059
5.435265768
5.578845762
5.545578814
5.405006884
5.48117928
5.493414788
5.597611631
5.493382839
5.685703882
5.615938516
5.683562822
5.48196502
5.392805842
5.46345397
5.560650351
5.689929237
5.770670002
5.690143605
5.494112411
5.690672776
5.673707777
5.534479114
5.572661962
5.532613871
5.465069584
5.553358753
5.597665111
5.717698848
5.510704896
5.390226119
5.47660049
5.424792507
5.443026685
5.57969162
5.513024002
5.602260953
5.569730959
5.546381828
5.640003984
5.517946957
5.628909101
5.691729713
5.74608121
5.67290843
5.662131455
5.545598037
5.553586163
5.619242928
5.662263492
5.645832129
5.416684116
5.548137072
5.665705544
5.580051556
5.506521987
5.486275011
5.503649304
5.519991008
5.49132442
5.565989342
5.498899704
5.59191973
5.692382224
5.763748463
5.646962934
5.624160019
5.620435176
5.427259167
5.517994773
5.529613585
5.6856866
5.52540581
5.449668068
5.461264663
5.468006325
5.4455992
5.363476031
5.400242717
5.282183132
5.348984016
5.508020493
5.572981814
5.394910591
5.316944659
5.548362489
5.559282174
5.655629906
5.598923235
5.501664934
5.393617365
5.366447063
5.500636524
5.657108352
5.649933778
5.624228097
5.674290437
5.507980439
5.605154378
5.516139854
5.501153596
5.368629896
5.402944498
5.565944122
5.58768123
5.593576526
5.47740113
5.391469624
5.614190654
5.461169664
5.613299028
5.760149451
5.651330731
5.620788155
5.592414831
5.560451684
5.56012479
5.557057119
5.62255489
5.633058002
5.59740345
5.559621108
5.482573912
5.58192063
5.693227319
5.509011672
5.542383874
5.519043457
5.515890905
5.669941869
5.543586478
5.403119114
5.403369657
5.347963599
5.5332138
5.602316346
5.743103352
5.533711482
5.598847069
5.642459041
5.591717812
5.595762465
5.563243755
5.421838562
5.442387343
5.601916274
5.42083878
5.547423998
5.496674702
5.462881909
5.575515785
5.550077749
5.505728044
5.486813927
5.634568422
5.576076846
5.628649078
5.608751564
5.664676861
5.690531037
5.605399425
5.555741557
5.663488811
5.64799648
5.666475643
5.476761461
5.630026275
5.524594534
5.588168531
5.629282665
5.664477274
5.627753241
5.611927104
5.594252471
5.769653231
5.726925396
5.688805523
5.676034633
5.804061048
5.626682581
5.399745029
5.428278161
5.461419258
5.528263577
5.51661873
5.569124325
5.536324262
5.564427685
5.760280603
5.753167995
5.548005
5.534628392
5.641227621
5.740470853
5.679904365
5.617326698
5.486206863
5.581440434
5.648834486
5.637760793
5.681474883
5.669721647
5.588204501
5.653757696
5.525112834
5.539427341
5.36754325
5.478044888
5.76059835
5.670539661
5.632040147
5.755137445
5.644035335
5.567440287
5.606681314
5.570101665
5.543267397
5.53370072
5.482937496
5.479252327
5.497993009
5.483415248
5.347795111
5.274262731
5.311512665
5.383506509
5.491110303
5.665678858
5.439450755
5.408380202
5.453186166
5.471949578
5.548807817
5.575722777
5.552731759
5.565371608
5.643661886
5.60693696
5.62609929
5.544989037
5.637528876
5.476908256
5.463491824
5.632984016
5.566959096
5.269012803
5.419203366
5.479368443
5.479013666
5.57469503
5.536723
5.682585714
5.604274496
5.574502747
5.525329162
5.610380424
5.564710516
5.57242725
5.669518124
5.570866034
5.487742838
5.599711473
5.533217543
5.49558069
5.465136184
5.387273218
5.219688724
5.281678106
5.334267231
5.439521957
5.640306514
5.738426133
5.620473088
5.573664511
5.609385938
5.516587135
5.615819357
5.590820201
5.592731095
5.679260023
5.453229798
5.548682516
5.602531614
5.527141276
5.525053556
5.490599433
5.692722514
5.670116363
5.678676073
5.446811717
5.345621004
5.339426437
5.374103903
5.405225837
5.405969815
5.517928443
5.436741967
5.46291565
5.44421103
5.393978345
5.573896871
5.486973543
5.381893307
5.512812859
5.470360784
5.492329898
5.441660587
5.401228883
5.539856018
5.460288122
5.329255418
5.444262729
5.651270264
5.558149277
5.437859277
5.336819898
5.436160305
5.40694428
5.371519408
5.471444429
5.493726471
5.431966782
5.483298562
5.314414818
5.426968684
5.534852167
5.393455675
5.527694466
5.540089591
5.394700333
5.267619544
5.240906047
5.331048464
5.409105732
5.452296399
5.391492232
5.448658168
5.414865702
5.471643281
5.463651929
5.588005868
5.384266153
5.530616592
5.652174235
5.615652966
5.42277303
5.568409087
5.222807123
5.377720907
5.423031349
5.541841061
5.431400984
5.397758231
5.381755486
5.407727176
5.469100485
5.446756237
5.510211842
5.576703287
5.751388398
5.621770434
5.846030653
5.81996191
5.738062531
5.478620063
5.441710406
5.423856714
5.461667694
5.539949375
5.389241687
5.420186123
5.436216622
5.309059865
5.442091654
5.517731996
5.494633934
5.544969834
5.496539563
5.431909229
5.353739182
5.519289688
5.613177775
5.603118981
5.653061836
5.564942417
5.434776437
5.609312709
5.59338878
5.584889751
5.542659352
5.558742416
5.597637556
5.574354138
5.434224608
5.45380808
5.617946683
5.398800418
5.341852594
5.400664362
5.493026976
5.42801126
5.266715645
5.440828823
5.425517223
5.421736949
5.540972641
5.428581773
5.428563475
5.533093831
5.59354833
5.623704205
5.423254918
5.44192461
5.458695726
5.569792344
5.384467006
5.29040849
5.604081172
5.597986056
5.749892237
5.869962447
5.706282918
5.558868033
5.52906995
5.395181866
5.329700334
5.662249722
5.504412512
5.453148217
5.391091577
5.41461806
5.462969634
5.401924985
5.4962896
5.516393436
5.435568142
5.439988232
5.469282689
5.59637752
5.485495915
5.575610633
5.490485461
5.496226138
5.411309732
5.381574493
5.352078988
5.538541988
5.56773791
5.628994715
5.491740144
5.602232746
5.556901578
5.573308573
5.571583432
5.563091354
5.492642449
5.598075089
5.692636561
5.642140209
5.799882325
5.831351848
5.644381875
5.594888489
5.750802279
5.709155983
5.597523061
5.435479198
5.464806504
5.489198754
5.626733578
5.672661034
5.624871794
5.572233231
5.603737407
5.441743056
5.448992077
5.492856153
5.407555856
5.4552318
5.455931562
5.619007328
5.706492542
5.678891732
5.565527489
5.532301739
5.360558208
5.660279284
5.480329214
5.514478507
5.604407521
5.682834282
5.792848594
5.752455197
5.680898978
5.733828422
5.59055846
5.437475268
5.502375604
5.607634633
5.529233896
5.477363467
5.442601393
5.436287101
5.493175585
5.531450489
5.575873069
5.568424659
5.654417985
5.460661022
5.374338834
5.596827423
5.658691342
5.670085937
5.692341656
5.50998652
5.48926843
5.616065205
5.553856465
5.56909911
5.540289674
5.51091323
5.37115191
5.375842341
5.489536767
5.573424497
5.647784187
5.479062721
5.556820214
5.310802053
5.327604147
5.367736633
5.420856594
5.471878295
5.577360121
5.457210403
5.524131862
5.528141825
5.606187146
5.487784988
5.386945284
5.445119375
5.6810272
5.697747585
5.670736052
5.466175959
5.436671779
5.524576366
5.482203797
5.525645226
5.580793871
5.584581072
5.724087658
5.893928724
5.694808552
5.596809698
5.551457672
5.529907762
5.554593429
5.51203382
5.51407913
5.476404113
5.529902471
5.526995685
5.25606368
5.339967764
5.54154739
5.582179007
5.50508267
5.505626872
5.596693715
5.595519947
5.504332683
5.641434679
5.622096382
5.642642357
5.572389462
5.701848382
5.666553905
5.459172824
5.608125192
5.722729113
5.612267727
5.48701433
5.481328383
5.442820436
5.420842082
5.471245109
5.54966469
5.592350335
5.60210198
5.518902677
5.493918383
5.410307304
5.556003005
5.595925888
5.584489831
5.542421072
5.609593291
5.613641976
5.612193032
5.594771116
5.745272425
5.668029277
5.658222532
5.535115716
5.379453174
5.494819732
5.374283783
5.206150724
5.348873504
5.364220935
5.20176638
5.349333877
5.463771919
5.340436384
5.223073951
5.262461737
5.228567105
5.383002208
5.515796947
5.592674653
5.535258429
5.489114497
5.394398138
5.557505825
5.578326282
5.372493391
5.372354306
5.317782703
5.416102827
5.365178846
5.332910413
5.140706089
5.24819848
5.477986681
5.48740214
5.522239609
5.708113779
5.60233089
5.695992026
5.418851435
5.515977722
5.427294478
5.326728047
5.31971864
5.340163807
5.350515984
5.259625655
5.105912343
5.356988204
5.341354719
5.493025001
5.605941173
5.765559821
5.649843354
5.669227807
5.590395383
5.582894383
5.430259656
5.398403543
5.428141412
5.341379094
5.349099597
5.386964152
5.365185938
5.377301063
5.590494236
5.657619057
5.470545028
5.390524054
5.382557449
5.51133885
5.509166792
5.546182408
5.511452019
5.458234473
5.365493516
5.442722029
5.548743082
5.588934289
5.652481646
5.61898699
5.744059426
5.819282429
5.812904834
5.791865552
5.603946737
5.609555397
5.577284098
5.46086337
5.394321729
5.563466251
5.660980785
5.603073395
5.424154065
5.345597019
5.439204567
5.269306318
5.386330855
5.446717544
5.517594391
5.611265501
5.563529837
5.418335173
5.4884292
5.503860064
5.482584891
5.469746643
5.500254177
5.477275557
5.567401017
5.526172664
5.421063385
5.4663527
5.563476207
5.408823094
5.499856459
5.576608058
5.517952791
5.530665896
5.4132985
5.490368253
5.45153003
5.632911151
5.609972355
5.623994439
5.390025769
5.400470958
5.424578138
5.594322755
5.607575139
5.483418601
5.581866095
5.511977779
5.501269192
5.677791199
5.589682838
5.535350654
5.503685463
5.425935568
5.259850215
5.372912859
5.530207892
5.483621944
5.418749884
5.468048727
5.310658546
5.364049645
5.364967729
5.249141146
5.294834049
5.482795826
5.426835086
5.247791882
5.233159971
5.264659774
5.418611395
5.644997887
5.504736268
5.504397522
5.502220175
5.434807564
5.333512585
5.542608327
5.461782876
5.449300179
5.401278375
5.437748363
5.329504232
5.391324802
5.373901892
5.474105033
5.390794447
5.487635406
5.585725156
5.37255882
5.428572971
5.526930797
5.521867736
5.417021165
5.517909112
5.649614212
5.564665473
5.591105765
5.437854761
5.456546098
5.469574525
5.51142121
5.594492864
5.461621411
5.421563207
5.437031704
5.455997822
5.397185006
5.539952492
5.529104132
5.472101074
5.383398609
5.357982454
5.50472152
5.603249895
5.547976988
5.450344089
5.534036619
5.514917526
5.526686298
5.689277866
5.684972444
5.682275161
5.537415225
5.392299552
5.514365894
5.433939999
5.464460036
5.289993554
5.499081414
5.689694373
5.534954445
5.647184313
5.447663695
5.422131727
5.488870087
5.556862474
5.616210917
5.486471076
5.554999022
5.552280957
5.480944192
5.567822685
5.446781512
5.349395214
5.306432165
5.351226844
5.314591096
5.501470778
5.423247374
5.438575588
5.513940564
5.402827064
5.395867444
5.363682402
5.45169786
5.561962497
5.492914495
5.586625061
5.691207504
5.358460413
5.594896204
5.657881042
5.796202046
5.664374973
5.527933582
5.581948843
5.597285366
5.708614549
5.669778517
5.593271512
5.539020919
5.578087065
5.557456544
5.622500352
5.512829102
5.466126144
5.502360058
5.356062615
5.308623218
5.500635889
5.337483085
5.287625101
5.479344559
5.637418516
5.474420282
5.235842744
5.299447091
5.41919884
5.43651887
5.461948778
5.531537375
5.401560264
5.337341964
5.310519972
5.444392775
5.499799927
5.521163296
5.495377389
5.492060496
5.314096624
5.416597505
5.527169111
5.467373585
5.581149061
5.457840111
5.312567006
5.429537114
5.458251003
5.504848768
5.46588523
5.591787743
5.537464129
5.451722285
5.369864093
5.379031524
5.495382763
5.488288813
5.52261714
5.484473526
5.482893492
5.483117592
5.501019514
5.481185489
5.425409216
5.386031062
5.413258848
5.560868178
5.598089934
5.514801664
5.460462534
5.518698212
5.411698711
5.373470807
5.550008953
5.732694661
5.692938848
5.371067135
5.49804929
5.468839982
5.441716225
5.49808969
5.407325914
5.389435213
5.344462929
5.610525675
5.680293127
5.580829486
5.489129645
5.447070927
5.549038712
5.652363562
5.651645052
5.579356834
5.377899283
5.371908912
5.385782014
5.561678031
5.540626639
5.482217409
5.510666689
5.52294714
5.816541057
5.732304664
5.629335993
5.471560097
5.518695796
5.414584414
5.466076088
5.58728422
5.71039729
5.523163516
5.531488726
5.471072417
5.452135529
5.436217995
5.467088249
5.536785165
5.445587047
5.374857543
5.584284564
5.658914543
5.609104317
5.501966509
5.622690842
5.635602514
5.747972998
5.616259529
5.521213367
5.62075532
5.637267125
5.572099844
5.449268716
5.316136839
5.539380532
5.656421275
5.681559253
5.517418297
5.500297696
5.663029268
5.743566169
5.839011287
5.743731782
5.749896556
5.631491469
5.557145112
5.618622931
5.506197186
5.516230355
5.579409436
5.555251263
5.552428163
5.573374917
5.709458917
5.682652664
5.644732128
5.684884639
5.957871185
5.842596183
5.785543548
5.561225191
5.412143573
5.497200653
5.731440778
5.76714008
5.637671089
5.554407263
5.62622737
5.477466388
5.507903579
5.492326963
5.453174363
5.460657174
5.593785344
5.567762729
5.575061256
5.570384273
5.545089699
5.635842423
5.491696652
5.547373016
5.626396934
5.487312329
5.600032342
5.611477763
5.373635148
5.423063081
5.378730656
5.355411391
5.489382765
5.6486977
5.647815501
5.799909903
5.80488749
5.716129352
5.593839806
5.596768832
5.418295223
5.494966356
5.452788312
5.677564846
5.732372335
5.598647655
5.522475996
5.420951885
5.492090314
5.526754935
5.756522536
5.885140634
5.789109542
5.578212834
5.53939246
5.38645309
5.30025623
5.450212183
5.376960644
5.446714705
5.470192227
5.483113947
5.494680902
5.79484742
5.683556572
5.607657481
5.591318051
5.517580059
5.424492972
5.416045581
5.574549489
5.702989607
5.673901286
5.665930717
5.427927288
5.577250355
5.477551076
5.431071032
5.517755788
5.354768782
5.536456185
5.727234265
5.825384834
5.612321604
5.664234383
5.681192448
5.778371609
5.719751367
5.629947791
5.483724201
5.522635587
5.414382547
5.439203548
5.474986177
5.336013339
5.413678693
5.534529252
5.523647515
5.579463066
5.502565495
5.415982182
5.470474532
5.373801329
5.493721438
5.507548011
5.450211307
5.527707782
5.557069889
5.664630847
5.589052883
5.529680379
5.732240499
5.553619451
5.315232137
5.451766722
5.565421483
5.488507424
5.419412612
5.607679588
5.717242396
5.646568449
5.633169408
5.599168078
5.326901489
5.52652187
5.540190152
5.619857981
5.477718237
5.411031261
5.477588847
5.516436233
5.582192789
5.536776753
5.400030887
5.376326522
5.34581215
5.464029603
5.50910139
5.703980769
5.643325532
5.599814959
5.532129383
5.436107713
5.565187711
5.435589973
5.464997603
5.594971448
5.759253719
5.683058997
5.63346888
5.557791697
5.441038145
5.431309841
5.495762568
5.447280505
5.419217569
5.388967505
5.406810564
5.455894294
5.364050792
5.442294973
5.497929727
5.439023542
5.732616919
5.55535123
5.458725963
5.354014142
5.430251404
5.367294923
5.355106863
5.280403369
5.327856179
5.351305921
5.248082361
5.26705666
5.315841803
5.366723253
5.410216735
5.296234817
5.506633488
5.530317982
5.536405577
5.57551797
5.568602797
5.572260755
5.52601755
5.478875892
5.411802238
5.597509205
5.721261865
5.614462518
5.342842285
5.334136128
5.499719061
5.553514109
5.655550568
5.529711397
5.489953215
5.609985211
5.475692711
5.492156691
5.677561843
5.782249204
5.584303166
5.624569046
5.622874112
5.594852968
5.506697839
5.329624726
5.267480755
5.325671692
5.325633466
5.293988716
5.198452574
5.264394199
5.446331799
5.597900755
5.657899522
5.46811744
5.394232148
5.416548012
5.368609854
5.480480153
5.318129593
5.335248278
5.342405322
5.330887597
5.350035465
5.472009606
5.63652739
5.606386975
5.626091166
5.547854709
5.449039089
5.332434872
5.263976381
5.361590893
5.528332761
5.508405885
5.475331896
5.618898851
5.458544528
5.400540884
5.467330492
5.43311036
5.319705679
5.256284453
5.310270196
5.429354675
5.350372713
5.263859088
5.357660532
5.509965296
5.610591645
5.541332752
5.622848282
5.774247853
5.806261378
5.501763834
5.590405531
5.561975345
5.519459589
5.55047752
5.704122623
5.685553586
5.801397037
5.903752808
5.50154137
5.456268747
5.519470748
5.620836129
5.643051425
5.721105128
5.699733349
5.563162591
5.630347385
5.485447147
5.508982549
5.558628097
5.240817849
5.337974017
5.526623965
5.729844935
5.470464858
5.591740894
5.436018797
5.41138198
5.572455614
5.530901039
5.498651108
5.484382858
5.558503557
5.540864749
5.546242419
5.677171481
5.475914366
5.508371443
5.527765422
5.477484134
5.507302075
5.460705442
5.406645502
5.429327532
5.578426801
5.584407783
5.60311366
5.624650994
5.561793758
5.443352569
5.176228797
5.329545476
5.385779979
5.403422512
5.362009608
5.541540196
5.525926131
5.533388337
5.386457397
5.521088182
5.586716029
5.702599494
5.662399092
5.595805456
5.355347988
5.390270538
5.369495852
5.392964132
5.337152898
5.429759345
5.422313015
5.298102345
5.505314358
5.493659608
5.468955987
5.420218539
5.56836779
5.696428317
5.632603743
5.669247394
5.650872726
5.506978537
5.395815733
5.362132671
5.664461023
5.568491096
5.517037923
5.417444895
5.433546067
5.653599187
5.6460103
5.600452292
5.479314533
5.396923531
5.462663072
5.404420579
5.37092935
5.498432779
5.642425738
5.618834614
5.593675559
5.704262104
5.666748256
5.65764098
5.896611315
5.873973386
5.608020227
5.562694438
5.57005379
5.594746343
5.662912959
5.721784603
5.672912309
5.588323248
5.526773399
5.607397166
5.616972774
5.571515249
5.595018177
5.424485261
5.47749019
5.527991783
5.569818985
5.756340964
5.553552773
5.618139634
5.696664652
5.629672501
5.448126097
5.487020914
5.491642029
5.47236756
5.507615985
5.459855968
5.526506905
5.499225678
5.456390039
5.480908148
5.521137136
5.470411737
5.525363149
5.439078488
5.457526832
5.579158513
5.527758594
5.604455094
5.551172694
5.523241792
5.648162914
5.575570309
5.585606336
5.525653194
5.629929592
5.583588595
5.591332406
5.700249301
5.733166925
5.648706822
5.571994063
5.461644698
5.496530585
5.467604663
5.56154598
5.638025214
5.371343257
5.440237116
5.614948743
5.559734876
5.383046515
5.410270943
5.513326646
5.377053934
5.199353922
5.374074932
5.588969812
5.474961203
5.463946363
5.474564384
5.506731038
5.462239624
5.297705537
5.263519905
5.345339092
5.400685294
5.646739267
5.527077574
5.447648587
5.300783039
5.345702136
5.231664856
5.253752216
5.273083026
5.499680858
5.508400403
5.466997549
5.426151877
5.339112856
5.510626827
5.479086769
5.419476944
5.59300501
5.489339246
5.552636896
5.692539605
5.367296677
5.420629174
5.368240664
5.552291058
5.449149141
5.593975572
5.662344687
5.657488992
5.566570661
5.478595244
5.468388377
5.444712585
5.558501807
5.539116255
5.514803327
5.536715216
5.576178013
5.613940102
5.571900023
5.477451626
5.343222308
5.35018493
5.428556064
5.491613922
5.542813289
5.44742481
5.335446318
5.351763355
5.520428821
5.588866402
5.616728883
5.547854002
5.508082094
5.472920968
5.629765819
5.584187574
5.608842157
5.61370513
5.608840185
5.515652312
5.7211748
5.586789815
5.542806444
5.468422518
5.407957867
5.571431007
5.548509748
5.361949104
5.338466384
5.340352808
5.300502172
5.30586574
5.387311962
5.540615759
5.389538074
5.330493601
5.435735264
5.427229486
5.544710244
5.500600417
5.505537431
5.447243259
5.42465145
5.300359057
5.362812465
5.41502728
5.358292868
5.366771283
5.349683158
5.300011635
5.443235073
5.526319519
5.52321851
5.40062503
5.351766763
5.356341833
5.42098592
5.467669014
5.365481571
5.444439799
5.513108294
5.495390883
5.5106425
5.451918131
5.433687632
5.424808549
5.443332965
5.45304014
5.566635333
5.386156659
5.387067627
5.387749582
5.467322997
5.442869014
5.460427571
5.494596694
5.48046811
5.366087017
5.422297636
5.476718229
5.374315902
5.498303851
5.413517015
5.433157578
5.444752437
5.567252204
5.616333576
5.457693316
5.484466441
5.471705126
5.523713538
5.547315151
5.518523147
5.346610592
5.377851067
5.438309945
5.494629436
5.491979401
5.42596009
5.371888751
5.609756399
5.570973079
5.681321631
5.609324119
5.675137535
5.608408781
5.499940371
5.502358525
5.551003134
5.510827913
5.475698897
5.573995315
5.465318496
5.522140538
5.280372237
5.268081269
5.260716328
5.278430212
5.260248877
5.42428932
5.591534826
5.550607015
5.488104217
5.662127291
5.540616578
5.544469118
5.535405567
5.502067197
5.481849804
5.513495786
5.491368538
5.51776806
5.771516656
5.634649572
5.681674894
5.70714783
5.64891856
5.644704005
5.634525484
5.730400639
5.42626621
5.468658112
5.519235262
5.565161834
5.530219207
5.478235047
5.490630691
5.349491473
5.385128918
5.595530204
5.627956263
5.469715043
5.433148245
5.44891845
5.57628275
5.667125199
5.676494503
5.612358727
5.554129221
5.497220367
5.610024419
5.509490996
5.487072188
5.425199052
5.340219281
5.358725736
5.570177126
5.534785333
5.413130987
5.369479582
5.416628844
5.483706676
5.425868875
5.470316693
5.409388682
5.387155945
5.399355624
5.59723798
5.657070816
5.705028649
5.460530012
5.670870567
5.571487634
5.636982481
5.745222965
5.717582311
5.539869805
5.403706592
5.501814619
5.495898001
5.542603219
5.409037382
5.499972237
5.74336897
5.686411162
5.707247803
5.696284799
5.596115651
5.63807357
5.536536591
5.432727494
5.295005342
5.476594821
5.536506785
5.671761904
5.717675008
5.601454005
5.493735465
5.481815634
5.539448261
5.482660528
5.67745281
5.677904472
5.480103356
5.528369698
5.631684258
5.537089311
5.758090859
5.68914733
5.647506738
5.491309662
5.362418973
5.325545271
5.24051854
5.355387844
5.347369229
5.399841592
5.499631944
5.520803414
5.58682222
5.675712856
5.587443425
5.511976253
5.518200719
5.553929374
5.47454521
5.536290986
5.543955541
5.448365051
5.412089411
5.454582445
5.388519634
5.414829828
5.604556013
5.56978103
5.647511893
5.491662125
5.626277806
5.439856292
5.453243313
5.380805518
5.528073958
5.554398024
5.600656293
5.625472968
5.559613846
5.683406571
5.752685228
5.731176522
5.459899175
5.728298956
5.535269146
5.509898773
5.542337166
5.619010731
5.6939492
5.663736182
5.594656061
5.621382345
5.405424681
5.562572917
5.570204061
5.607035954
5.352586244
5.4403587
5.522833524
5.325664926
5.44023327
5.481547674
5.530399091
5.659435008
5.547821174
5.502893266
5.443403698
5.600529084
5.600937481
5.573521123
5.756286356
5.885544567
5.819752985
5.765071682
5.87766723
5.608998496
5.625399744
5.652640741
5.656837722
5.629376619
5.733332479
5.561180127
5.643273975
5.465256104
5.578690873
5.699416334
5.70298975
5.680036393
5.673585999
5.596079419
5.57108231
5.564459083
5.404834433
5.339344601
5.555583994
5.480454463
5.427543171
5.404386977
5.287189665
5.316197322
5.410438262
5.44915453
5.340909505
5.371963991
5.488241127
5.464471095
5.422505372
5.476562654
5.447464084
5.405342423
5.390783052
5.537112106
5.584336607
5.622370492
5.558679562
5.457570861
5.355177134
5.319191531
5.334797693
5.437294854
5.551277492
5.381930845
5.457385185
5.507523652
5.519564681
5.593403222
5.595280809
5.430162237
5.396224073
5.311637076
5.374670748
5.346787276
5.339697395
5.371915449
5.415115634
5.384167265
5.543762497
5.567395823
5.600979065
5.90768578
5.723863283
5.556297586
5.576822372
5.307389742
5.259441051
5.313322378
5.432864038
5.515078991
5.52383313
5.535951502
5.405409052
5.511513447
5.632395685
5.632354847
5.542255094
5.478573001
5.510729026
5.571643586
5.38992323
5.375788136
5.40512764
5.422255631
5.337818134
5.365004345
5.440107997
5.434409682
5.357693699
5.351450573
5.404546769
5.429116198
5.511632308
5.442488893
5.493068325
5.441231959
5.41828272
5.550366121
5.4871422
5.37095051
5.436788381
5.554426878
5.544037015
5.533946349
5.393059928
5.406701526
5.468044167
5.535576136
5.538727989
5.50837694
5.473561268
5.462651181
5.293164301
5.277747218
5.414444659
5.50235225
5.42944715
5.372003396
5.494971771
5.580278143
5.64953422
5.604890774
5.364852544
5.362961883
5.240426974
5.452052977
5.539042325
5.64223932
5.477006582
5.415749538
5.445487343
5.574413638
5.590583743
5.595467862
5.478473958
5.528482837
5.448017414
5.259989345
5.283908241
5.360535854
5.459095564
5.639217417
5.654561846
5.638197833
5.558695902
5.730673958
5.810506432
5.644593472
5.614310802
5.57255766
5.472096885
5.473386827
5.627281824
5.717329886