/*--------------------------------*- C++ -*----------------------------------*\
| =========                 |                                                 |
| \\      /  F ield         | OpenFOAM: The Open Source CFD Toolbox           |
|  \\    /   O peration     | Version:  2.4.0-MNF                             |
|   \\  /    A nd           | Web:      www.OpenFOAM.org                      |
|    \\/     M anipulation  |                                                 |
\*---------------------------------------------------------------------------*/
FoamFile
{
    version     2.0;
    format      ascii;
    class       volScalarField;
    location    "0.0008";
    object      Ma_O2;
}
// * * * * * * * * * * * * * * * * * * * * * * * * * * * * * * * * * * * * * //

dimensions      [0 0 0 0 0 0 0];

internalField   nonuniform List<scalar> 
5120
(
6.120889496
6.03187994
6.259076531
6.042808437
6.242028886
5.883246326
5.935464729
5.782988861
5.941919852
6.37168675
6.367554247
6.058220199
5.936034267
6.251666361
6.196386251
5.883223759
5.984567454
6.249289755
6.503840662
6.517155963
6.001380127
5.959948535
5.944792661
5.942470033
5.868002368
5.802680756
5.873317077
5.956200602
5.860055119
5.850864954
6.140306503
6.343610504
6.165152951
5.851907858
6.204459009
5.929551744
6.295810019
6.212963405
5.880154589
5.828368785
6.386645444
6.065353837
5.942614758
6.165508809
5.948260468
5.970561076
6.011876692
6.342098222
6.207200121
6.104403104
5.955416864
5.883587356
5.99344256
6.119994618
5.77566042
5.923231249
5.889828743
5.961815883
5.985035514
6.265766332
6.116417543
5.952044687
5.816023976
5.691706245
5.623767861
6.129846806
6.39685349
5.998222963
5.8498321
5.731892038
5.979468788
5.801784825
5.918574453
5.488226225
5.706745669
6.003515822
6.158712655
6.246303965
5.943605814
6.090203734
5.798314047
5.666858684
5.824223591
5.822351879
5.72158428
5.689958589
5.78260931
5.949811991
5.997454372
5.550983438
5.556317272
5.602128866
5.325398663
5.772952014
5.920864618
5.805910928
5.869314035
5.581076326
5.792391249
5.731630784
5.943361655
5.871857198
5.9612219
5.97282289
5.672487504
5.603208854
5.857222949
5.812674862
5.806291112
5.820486487
5.631594765
5.275938215
5.854441412
5.884536692
6.037811624
6.058251004
6.002848544
6.165924468
6.344674321
6.02061701
6.014715677
5.982100616
5.949708731
5.855121468
5.869460793
5.689325752
5.786447312
5.671300432
5.461381314
5.761269533
5.986963763
6.378761229
6.2219555
6.018710116
5.704172743
5.552362674
5.739002007
6.050677271
6.047246214
5.843634507
6.085784703
6.315291955
6.231926451
6.01767948
5.867531487
6.061880203
5.671196732
5.829235581
5.881889898
6.06939365
6.035661848
5.770761592
5.548555215
5.566133489
5.890940084
6.101770562
5.84525443
6.329731912
5.972900784
6.129179592
5.714752508
5.745662493
6.038036209
6.161017713
6.223723738
6.10396828
5.956781639
5.922112891
5.972603309
6.078322896
6.442273101
6.30362734
5.848921034
5.666020101
5.834286826
5.95536313
5.889319264
5.906273082
6.131636447
5.869439062
5.820210536
6.193796647
6.061888938
6.024899493
5.926464131
6.004665473
6.012348573
6.001728503
5.942363327
5.865143325
5.569215651
5.728881837
6.007302094
6.163443359
6.193396294
5.675969624
5.984915154
5.937924546
5.581644212
5.707590833
5.660034741
5.863239752
5.914142973
6.22718607
6.182231398
6.124578076
5.947372687
5.739923425
5.932541259
6.045711112
5.728623726
5.599409393
5.610845152
5.567681545
5.586458615
5.530818566
5.488730463
5.359357106
5.672076768
5.543541746
5.753777184
5.508804982
5.702369929
5.71886831
5.891910969
5.794580614
5.908978623
6.032792409
5.724398176
5.916535881
5.774724407
5.868769649
5.938543628
5.824156146
5.601030748
5.719572208
5.647570823
5.708529098
5.437620621
5.763731327
6.323042726
6.235903214
6.394816515
6.376389605
6.693545972
6.630434332
6.268186623
5.889169253
5.671871811
5.620305179
5.6045777
5.749636934
5.789792594
5.592123681
5.713729864
5.714934392
5.509401982
5.476505583
5.822309638
6.192910711
6.268800431
6.210525837
5.864872952
6.03442404
6.008487137
5.701314979
5.800381051
6.013051531
5.827341075
5.881176964
5.80041722
5.68989021
5.650964063
5.89074983
5.947889985
5.843346675
5.688481871
5.548030896
5.967689633
6.182298705
5.842833824
5.748333158
5.664532384
5.512934217
5.457265945
5.722302199
5.84058681
6.020074718
5.847066882
5.778676564
5.616088637
5.857782224
5.991538906
5.501468254
5.469785871
5.785571156
5.62664911
5.706668418
5.810792231
5.668537106
5.999964557
6.386387425
6.340189572
6.141237554
6.34126941
6.558815934
6.233974689
5.830061918
6.135765986
5.987808897
6.29765866
6.096221884
5.91336388
6.101670285
5.705280455
6.115073491
6.299141874
6.262037457
5.75642414
5.90776513
5.96498991
5.957253738
5.995667547
6.217194755
5.991057135
5.850655104
6.030110015
5.992961557
5.733324682
5.852659012
6.029727298
6.274306115
6.362057628
6.093020361
5.925383826
6.010285646
6.009847476
5.880673963
5.788417223
5.648582498
6.068419521
5.976551413
5.924460135
5.939814966
5.999998984
5.885446127
5.894945678
5.833320419
6.155367098
5.990659116
5.831725808
6.051872871
5.937313015
6.090363322
5.991627833
6.088475152
6.309832413
6.291304934
6.389154889
6.324364765
5.89361368
5.841590133
6.151864303
5.74203708
5.675169417
5.73742382
5.695093505
5.699272876
5.932821378
6.259605176
5.992533764
5.809504603
5.911578545
6.103725476
6.326378955
6.11685218
6.185585097
6.155992254
5.889508678
5.796061106
5.923650424
5.692899612
5.890735931
6.166995452
5.939744129
5.682675143
5.750885003
5.649969014
5.566046985
5.731909274
5.826202236
5.924201921
5.710570401
5.700754787
5.736913597
5.799596863
5.990717574
5.917961639
6.01559649
5.874831379
5.894523231
5.738995062
5.421277288
5.609651709
5.923770182
5.695997624
5.683710408
5.797791729
5.900172697
5.79041568
5.718366391
5.586707101
5.667572907
6.040700064
5.863824411
5.310612774
5.550462569
5.692206126
5.875281617
5.969330245
6.186629941
6.092755395
6.014675499
5.499659643
5.626593983
6.194262811
5.821115342
5.789826127
5.857889282
5.920890543
6.167495708
6.078452508
6.162165347
6.022437788
6.045820552
6.032959371
5.997734177
6.06836936
5.924048778
5.997613955
6.252990173
6.315385445
6.316824937
6.26585137
6.229402794
5.925405648
5.947158403
5.811727043
5.847934658
5.894714383
5.694995103
5.716456193
5.612518497
5.742859007
6.13377839
6.018841083
5.923808432
5.87021138
5.692277354
5.987336228
6.318494289
6.133940871
6.114198047
6.094017832
5.934555396
5.813204469
5.98840659
5.82490682
6.028325618
5.822796532
5.844839512
6.179497894
6.2294628
6.551958494
6.282502192
6.166446122
6.245199656
5.996130148
6.162043809
6.197456079
5.851259068
6.04477468
6.129212384
5.924712673
5.641561372
5.665143583
5.892189826
6.210762355
6.029049685
6.178611034
6.349425047
6.336777231
6.355733002
6.249961642
6.104587765
6.134827689
5.959442796
5.98120336
5.891825992
5.694442542
5.802194409
5.651828857
5.880809147
5.978199692
5.906889977
5.788034725
5.714843337
5.882702273
5.960563439
6.2196128
6.549333576
6.516375371
6.412917345
6.392458739
6.275239336
6.052672778
5.994275332
5.744488166
5.93681684
5.752274471
5.89668982
6.003436229
5.892842857
5.893736237
5.777001747
5.874322878
6.259476192
6.283506111
6.249072192
6.013275033
5.840032835
5.675589155
5.518278292
5.903746633
5.860316524
5.838894077
5.625329823
5.901844286
5.628819632
5.67796166
6.206933654
5.945601989
5.709725509
5.542091077
5.733619796
5.744111472
5.842833348
6.033880321
5.875767945
6.022900909
6.19810349
6.041594463
6.201879009
6.104711829
6.232958314
6.172780402
6.363800431
6.316815196
6.507663082
6.519787511
5.444830045
5.324434711
5.646986622
5.846738022
5.705806943
5.696215949
5.532341013
5.651762672
5.722471611
5.957446421
5.77034791
5.911296596
5.893879946
6.081518191
5.902308929
5.926574156
6.169321566
5.822368974
5.55936521
5.360823028
6.189476186
6.335588925
6.279260382
6.389705618
6.031564565
6.243881268
6.357973692
6.066754688
6.268260713
6.294162276
6.378976192
5.911954389
5.720045514
5.98354798
5.98058683
5.889323609
5.969553104
5.958640335
5.983564886
6.145026086
5.978835584
6.296089492
6.203749271
6.518123662
6.028840651
5.721099908
5.7199217
5.72015692
5.671458739
5.680549123
5.530215264
5.568992455
5.556662248
6.014868348
5.981650564
5.822372179
5.95811615
5.976704348
5.876681479
5.94645969
5.870991901
5.769848758
5.792233868
6.070951943
6.481424917
6.45307956
6.364650339
6.305551271
6.245977339
6.13298358
5.938656582
5.969927235
5.80026148
5.732370453
5.743525921
5.766268222
5.626474311
5.618897136
5.588506675
5.721241149
5.999087773
6.150583903
6.012142743
5.814472073
5.897156315
5.845449815
5.677730615
6.012366377
5.905725997
5.689371277
5.703849665
5.632809374
5.476916568
5.699907025
6.102309468
6.183310616
6.223851367
6.049152249
6.166943935
6.077266865
5.744544618
5.933082366
5.946437242
6.098604597
6.234049831
6.301768324
6.243371796
6.241050172
6.469141445
6.551933212
6.401063256
5.734889187
5.809415757
5.74160374
6.009306777
6.118939864
6.372773965
6.195472627
6.267388687
6.177701521
6.030933811
6.182773118
6.026957841
6.07181827
5.814110703
5.778795283
5.842099115
5.773048908
5.763217026
6.017702674
6.302819279
6.002385432
5.92756543
5.869364582
5.988239851
5.851482925
5.679070551
5.710522743
6.160028996
5.996622136
5.439876414
5.836245549
6.00654878
5.771560325
5.871117345
5.721100518
5.704348445
5.704082213
5.947909965
6.138928635
6.229270857
6.161952283
5.881556494
6.101513767
6.039474679
6.066018462
6.278929358
6.089005119
6.028930029
5.598191924
5.617261119
5.545555399
5.523408816
5.808444911
5.720352375
5.448792044
5.667496942
5.946939736
6.042685608
6.097294015
5.826995868
5.733756961
5.946980456
5.702864132
5.938592804
6.113854579
6.075368826
5.80980459
5.80161484
5.493409887
6.093517023
5.971710995
5.791158043
5.767614154
5.56211882
5.925862638
5.962449537
5.9922986
5.933056568
5.835135131
5.717343915
6.015989317
6.230029399
6.1440792
5.837842128
5.924977183
6.366495004
6.184447983
6.398709485
6.508327359
5.748593979
5.760210153
5.856914083
5.970475713
6.136161879
6.080750529
6.066523447
6.273314558
5.99022859
5.985697127
6.273686308
6.408812374
6.26111934
6.015428565
6.063776523
5.823918238
5.95868457
5.914932525
5.987273275
5.780548662
5.757065274
5.769632039
5.949997053
6.071772965
5.769235802
5.697012286
5.690326109
5.845837637
5.91171822
5.813943962
6.084041986
5.858721644
5.791116882
5.501910583
5.45850301
5.71376012
5.907293435
6.036166838
6.051765819
5.995277548
5.929197411
5.518741023
5.573147925
5.524126197
5.810272075
5.938975851
6.031480333
6.290682077
6.411420934
6.180311819
6.63554254
6.759436912
6.262373441
6.61257295
6.154121173
6.268691827
6.023736899
6.081607396
5.793447483
5.760152471
6.115821351
6.172681986
5.968801906
5.763620386
5.689451196
5.811918027
5.926108142
6.118530551
5.941959563
5.967456705
6.3259112
6.186434925
6.103090133
6.372442083
6.333806358
6.025709562
5.948646386
6.007049843
6.294411864
6.443448113
5.759869321
5.902954917
6.225950378
6.134800999
6.030968309
6.161315937
5.895996054
5.582724929
5.802600651
5.882059867
5.932531437
5.994902985
5.904633253
6.089731072
5.823800045
5.788896104
5.770408744
5.928217578
5.533597484
5.730202985
6.121778812
5.930124949
5.693757722
5.715446931
5.867133885
5.699992126
5.998231142
5.815278285
5.780404591
5.620000221
5.569816866
5.694568189
5.687261576
5.90362345
5.94061515
6.012818367
5.949114226
5.803152555
5.947031687
5.913488472
5.690763091
5.466034114
5.268370875
5.430826841
5.534067007
5.775906369
5.955882449
5.876471188
5.71009767
5.754948515
5.938469259
6.0733206
5.858194174
5.842263883
5.754138094
5.749886969
5.674981211
5.971053114
6.128793061
5.912507204
5.727779163
5.858789798
6.040418535
5.694311742
6.352389721
6.124660858
6.137876643
6.347538387
6.358113303
6.357690544
6.504039172
6.321077536
5.907872779
5.752578694
5.878724665
6.250415871
6.279203024
6.302724069
5.812988254
5.794866993
5.463736265
5.916993107
5.920286539
5.744069055
5.465184719
5.725324861
5.79631716
5.63183299
5.874662062
6.090936849
6.043496575
5.838660549
5.725023343
5.60386328
5.569283293
5.879918237
5.694045335
5.622750038
5.602726062
5.270208684
5.974447569
5.937886986
6.147003738
6.062083251
6.20263416
6.047099741
6.063142815
5.816919496
5.76693489
5.850774785
5.793302239
5.632120934
5.961588334
5.844152492
5.767387392
5.712494651
5.777098113
5.902038575
6.156473717
6.003269714
6.216358221
6.512028106
6.104191053
6.041809461
5.748883878
5.575644624
5.702378423
5.795523373
5.80265109
6.137997943
5.975981211
6.131738539
6.181507527
6.116768403
5.786130393
5.837833223
5.766700816
6.1125813
6.055235656
6.119728096
6.124375787
6.235060142
6.58515462
6.456331432
6.202390125
6.23756097
6.209163594
6.199639835
5.915098313
5.707469026
5.812546111
5.72513103
5.691020271
5.984296147
6.201185261
6.100972248
5.766433118
5.982189383
5.759115621
6.012178671
6.14101253
6.132377843
6.407054017
6.715675919
6.443110506
6.326440243
6.155288041
6.166119126
5.815051687
5.712685552
5.466071837
5.785505099
5.969814249
5.740933364
5.311868565
6.03913946
6.334391969
6.29008993
6.368875948
6.036720285
5.942509438
5.810747683
5.68669788
5.776825117
5.846819142
5.75466913
5.902152299
5.632127776
5.746564184
5.968385955
6.098967229
5.715485382
5.831926827
5.956946374
6.199318444
5.958372805
5.811302786
6.026935418
5.899401069
6.089970433
5.541093274
5.517687668
5.792811498
5.804578166
5.917144117
5.921231034
5.929976399
5.708568923
5.790160157
5.678752234
5.605672572
6.052985367
6.24777533
6.719743881
6.616103722
6.408384996
6.065480239
5.802036659
5.697498167
5.689226601
5.650099894
5.949543392
5.90181049
5.700231555
5.924922392
5.827168252
5.845041871
5.831154418
6.095466255
5.699115799
5.683636766
5.862049846
5.898193715
5.746719454
5.648692846
6.024586726
6.409421116
6.356743988
6.008181177
5.80941682
6.254739917
6.181541811
6.178628252
5.909563464
5.603666665
5.780808938
6.068718149
6.030665709
6.13100391
5.952072172
5.983338748
5.756746686
5.883905848
5.914501298
5.900955094
5.901107164
6.152546551
6.022907986
6.275196404
5.981193818
6.177538637
6.244638758
5.902867277
5.992856797
6.019675645
6.122705101
6.208530965
5.948921471
6.248647037
6.487014107
6.23108783
5.855714249
5.301662853
5.433071553
5.727842369
5.844707733
5.699350884
5.93019485
5.702557165
5.895516661
5.889053214
5.749203912
5.864504
5.881512238
5.780319054
6.103097523
6.30317298
6.295800413
6.279380732
6.248103891
5.988486606
5.875485952
5.854641433
6.041635121
6.06790405
5.782559462
5.869320734
6.085740829
6.084315787
6.207142714
6.036306845
6.02130918
6.459836037
6.229410973
6.369218763
6.316256691
6.279415752
6.242369169
6.346364786
5.952475426
5.831767882
5.646442514
5.8609909
6.030753546
6.054294243
6.035628743
6.047240789
6.035756648
6.018774127
5.75479487
5.665158639
5.935907729
5.863385063
5.892041908
5.983222987
5.944105426
6.123978096
5.891910125
5.450514291
5.596388409
5.705557874
5.681066075
5.685876299
5.940072635
6.063985613
6.348643039
6.460242633
5.941677288
5.941325497
5.716176634
5.90877948
5.943295591
6.038787874
5.876021661
5.765609729
5.843578743
5.810389289
6.236137533
5.974551139
5.799709216
5.907436547
6.245188388
6.097853124
6.202933848
6.251779963
5.99167818
6.148966482
6.08402142
5.989918226
6.053436169
6.484586658
6.1005725
5.941623119
5.761760467
5.941085411
6.074251839
5.946315814
6.217400934
6.379573708
6.664046122
6.354562047
6.18237726
6.312910939
6.23918518
6.323184645
6.488866442
6.27320891
6.275496278
6.207516912
6.544547906
6.087460084
6.07960559
6.164953503
6.535578811
6.362466515
6.072962195
5.80271694
5.778232246
5.98980071
5.955553189
5.993053333
5.921632151
6.207080043
6.132104407
5.951295018
5.993018178
6.370042841
6.085257805
6.156749932
6.282847842
6.362426825
6.070852212
6.04784852
5.952850099
6.124369103
6.196897835
6.399071849
6.353846274
6.207395451
6.120531181
6.376582236
6.289920698
6.163955789
6.22902555
6.249206395
5.927994041
6.196608582
6.066008003
5.904691075
6.439825483
6.240387572
6.067139057
5.824717453
5.794923422
6.059608045
6.04892671
6.135935986
6.472852299
6.308676811
6.066206236
5.875946949
5.682609032
5.70344196
5.563390421
5.362174129
5.334508682
5.371932512
5.498810933
5.752207495
6.023477988
5.513314862
5.331962435
5.539208462
5.563644171
5.763315138
5.564083176
5.730537241
5.67058833
5.863276588
5.555579871
5.838977052
5.618011904
5.761363325
5.708668565
5.609398922
5.480528998
5.484407196
5.586632178
5.759548893
5.457140277
6.175322663
6.243971792
5.813822271
5.777466075
6.341693753
6.14007177
5.829786111
5.706769867
5.686249068
5.813738889
5.852221007
5.803260157
5.84416997
5.684811575
5.937664042
5.959068908
5.863711606
5.70482956
5.802466778
6.150610442
5.891188653
5.956228626
6.151510207
6.066894052
5.828122028
5.822135811
6.141494668
5.914451229
6.055987097
5.861822262
6.142165013
6.086339914
5.832184466
6.3170472
6.154661617
5.945298836
6.043982859
6.503197148
6.455183438
6.229201848
5.77551711
5.799139765
5.718506074
5.831231748
5.575470298
5.736428288
5.748060289
6.445860912
6.125573239
5.825230077
5.901200298
6.054949653
6.090014339
5.835970412
5.840863919
5.651370279
5.396801629
5.427618483
5.457711525
5.645078597
5.906064942
5.702455523
5.723917895
5.882685778
5.608169436
5.669193477
5.61153151
5.536640956
5.416245646
5.564935007
5.602399123
5.417261583
5.496394444
5.740587679
5.635721022
5.53353006
5.601509774
5.823236336
6.115825016
6.083906932
5.917959713
5.722798936
5.895921266
5.651168698
5.758691239
5.918829151
5.809820429
5.561695652
5.766597329
5.811085653
5.78796627
5.630401047
5.755794733
5.638468984
5.627911678
5.590843253
5.597032945
5.363357705
5.425164737
5.708377153
5.877183598
6.073552791
5.810919953
5.688356343
5.810141866
5.588969791
5.680750441
5.96699379
5.872545839
5.890039755
6.026500156
5.763752289
5.746279379
5.711040438
5.719244315
6.01274112
5.69138257
5.905861144
5.833131502
5.817035633
6.023819586
5.86007135
5.961187828
5.863512396
6.001374259
6.090665173
6.226720679
6.242267485
6.215191891
6.032097538
5.933396702
5.663229502
5.868617397
5.88155457
6.126226239
6.244689452
6.305262912
6.160667903
6.079014766
5.95221491
6.034885751
6.16080057
6.195342901
6.18406088
6.019878581
6.011137711
5.832437354
5.924774284
6.051992845
6.042309305
6.019507777
5.922551223
5.768238953
6.005502228
6.023545172
6.12949131
5.950119099
6.030255658
6.175551231
6.098419946
6.138527972
5.86806138
5.630281165
6.083504199
6.259944154
6.31790138
6.198381848
5.912656312
5.994168609
6.201231909
5.991184711
6.127017226
6.227526485
6.214130651
6.36884448
6.392087844
6.15377303
5.905814945
6.029936798
6.312873733
6.061030896
6.177583503
6.078880694
5.890966062
6.101010362
6.05876248
5.906353767
5.730058343
6.201031891
6.042743747
6.200105814
6.260109754
6.234811842
6.225936606
6.126746179
6.211119634
6.238099399
6.475501807
6.117277981
6.057988085
5.795845546
5.95843032
5.852833877
5.906346888
5.947624028
5.854428183
6.037379188
5.819670196
5.986204185
6.082526375
6.131429913
6.358081368
6.038348849
6.247956465
6.080482421
6.167790295
5.953309828
5.777931325
5.901253289
5.796550049
6.194732499
6.368969389
6.13830438
5.877274868
6.090632145
5.803809522
5.869833268
6.228721601
6.232817712
6.228179185
6.554550344
6.623082396
6.198951759
6.168933962
6.173337447
6.037677118
5.962304013
5.910404928
5.768580073
6.084158248
6.163950804
6.039153549
6.285976877
6.510038545
6.414326222
6.341533831
6.446244785
6.326288455
6.372050495
6.618625347
6.432326271
6.42069138
6.424032824
6.219750769
5.98248687
5.739871195
5.465391371
5.696977633
5.890087921
6.095090005
5.647548581
5.856884598
6.160628197
5.989134286
6.026042658
5.572090598
5.576384398
5.668710677
5.666504426
5.552296551
5.664203836
5.605836499
5.701849982
5.793216232
6.027379004
5.821539564
5.642718068
5.723541993
5.907491087
5.678770624
5.620579013
5.638893902
5.36480889
5.441530985
5.346814765
5.659670215
5.810225914
5.967851499
6.112332536
5.996561328
5.789219038
5.632490283
5.610672745
5.772912658
5.930651833
5.620513073
5.630227729
5.531963202
5.600903078
5.835773396
6.124787935
5.94761637
5.925309545
5.744583255
6.040378563
6.136338131
6.22107094
5.675494247
5.523880353
5.581748923
5.683402956
6.653528872
6.683638262
6.397489545
5.848859406
5.539225976
5.890713646
5.718121507
5.796335853
5.59673179
6.147351689
6.334649815
6.121957008
5.906334151
5.895387882
5.945598727
5.874476717
5.857195792
6.115848967
5.912935254
6.136749293
5.726304097
5.832358857
5.450196402
5.700918873
5.897696808
5.949152919
6.041139298
5.861101745
6.134319889
5.921172762
6.103100454
6.263691591
6.177098273
6.015801807
5.823938267
5.611345017
5.862197585
5.906188229
5.736300754
5.864401844
5.669634932
6.059928064
6.012894344
5.992601787
5.881863544
6.115728562
6.105470013
6.148515889
6.330132624
5.803440074
5.71791614
5.407060334
5.549592983
5.493850024
5.290033076
5.380358638
5.555741445
5.927970704
6.137799288
6.094884601
6.080439167
5.943868598
5.896876482
5.909999272
5.924652193
5.907101792
5.653005285
5.746958503
5.788586797
5.686046943
5.643576859
5.311087603
5.101755024
5.185990853
5.344863692
5.573936105
6.058551227
6.230902372
6.045104625
5.935773327
6.047460235
5.889697145
5.876897362
5.837680765
6.001778712
6.097632132
5.788564141
5.360740893
5.595682063
5.550044673
5.688493394
6.13812784
6.392178951
6.325687402
5.975530151
5.880168663
5.903517235
5.607359792
5.562294761
5.525193687
5.636167032
5.905678369
5.778371486
5.779236953
5.769918444
5.781314819
5.764507639
5.705471358
5.582694421
6.101068926
6.021322846
5.989344969
5.652718743
5.555323348
5.523866527
5.419848595
5.384922235
5.585969021
5.649962399
5.729580045
6.02288502
6.097964115
6.008325799
5.713069136
5.632945162
5.68292009
5.66459822
5.709156201
5.806433229
5.85190837
5.798783669
5.94024972
6.145113276
5.974352989
6.171952685
6.067840155
6.140220363
5.82486242
5.937534672
5.771767918
5.701856226
5.823489242
5.753157776
5.777536806
5.932378279
6.006632508
5.706409688
5.885023648
5.82257147
5.819998382
5.806469452
6.07513119
6.125312908
6.090474461
6.060260353
5.855853503
6.043891557
5.841334271
5.881213084
5.854162799
5.864229343
5.982577577
5.863864282
5.832693437
5.981052559
6.090416968
5.932313381
5.825820891
5.891448683
5.907339062
5.974269436
5.93970681
6.004599137
5.821106821
5.694537741
5.629909187
5.622603404
5.793788579
5.599423375
5.890061704
5.907604221
5.799720223
5.92991416
6.083421966
6.06095851
6.082705619
6.256320328
5.937449888
6.044880947
6.572329682
6.334147803
6.048244604
5.744821166
5.75100688
5.969334763
6.05645407
6.17580483
6.263393677
5.962684147
5.658919035
5.953049684
5.800577457
5.790471981
5.941316505
6.120880829
6.041590821
6.289625095
6.156367181
6.363116673
5.954358685
5.939211146
5.773929172
5.867418925
5.777495547
6.024272779
5.841663344
6.312784604
6.316628781
6.174861679
6.151612941
6.112917813
6.023477168
6.129315692
5.985992066
5.730872487
5.426468116
5.456165609
5.565558173
5.503945399
5.643496226
5.624141873
6.121548209
6.141282328
5.936586822
5.971572087
5.850894385
5.833033788
5.592820669
5.830061105
5.616897604
5.658696088
5.653478253
5.630627378
5.560131261
5.625261456
6.160908713
6.171035869
5.833422071
5.618342541
5.751758511
6.188161483
5.81629019
5.739299624
5.974440914
5.777611076
5.668647242
5.57904779
5.649676326
5.743053778
5.816074783
5.815349175
6.079177874
6.090753278
5.987834141
6.084477245
6.092142428
6.326152426
6.100192459
5.978276677
6.318715211
5.95960629
6.060438932
5.98925144
6.079813739
5.827915339
5.820746779
5.737416923
5.712180516
6.068556745
5.556756808
5.519196521
5.445079612
5.432371612
5.699232235
5.853440509
6.253972778
5.711060929
5.577396385
5.713369935
5.37102702
5.83150283
5.724271313
5.602162567
6.108690445
6.201756588
6.287042884
6.135202113
5.932475665
6.16713862
6.269351613
6.104426084
6.22724388
5.977091274
6.308090563
6.311612472
6.159066844
6.04647973
5.60730458
5.457297693
5.481157819
5.605922468
5.729666516
5.630961729
5.777074655
5.799974183
5.781185625
5.645156797
5.719467881
5.677891306
5.496349396
5.556093079
5.598954261
5.751206814
5.864625389
6.018628507
5.869407858
5.964354507
5.845484184
5.7470043
5.345276545
5.625374806
6.130153359
5.930695962
5.726120802
5.470731709
5.569788528
5.591828804
5.713307703
5.844829621
5.774320038
5.768326394
5.957628675
6.360350002
6.219739265
6.044667026
5.761253649
5.923179196
5.848123605
5.656745613
6.185963384
5.925341741
5.991677175
6.06152235
6.07079801
6.123841355
5.942177745
5.813119122
5.964153555
6.197231025
6.202596075
6.126283476
5.852210516
5.577461747
5.632008325
6.096219916
5.994716108
6.446542871
6.136696097
5.853579176
6.086770105
5.861755849
5.907988776
5.801800974
5.64009216
5.840720653
6.139294639
5.948879013
5.942475753
6.00781842
5.637883487
5.707697794
5.593058739
5.655871801
6.098270326
6.0058117
5.711408649
5.956070951
6.025596436
5.958883838
5.712149553
5.757000391
5.70987632
5.727005742
5.542052627
5.622329808
5.56906061
5.556786108
5.659505713
6.020891683
6.331425742
6.103416695
6.552251611
6.350902762
5.893351214
5.653931598
5.515641668
5.458132588
5.507807469
5.701467016
5.911880679
5.838757199
5.918203429
5.81133577
5.765998171
5.926623651
5.840591632
5.825695008
5.928662271
5.900428275
6.000878979
5.971899424
5.739679866
5.965264743
6.283417311
6.396164302
6.153606419
6.100515018
6.088355998
6.013812664
5.817122949
6.272403258
6.197913161
6.351754633
6.233516482
5.768873676
6.064939871
6.036758821
6.009063916
6.043216975
5.662120044
5.685650985
5.716238435
5.662656679
5.942592605
6.011656453
5.74643682
5.807142535
5.774639633
5.799956607
5.77856609
5.663617756
5.705601754
6.164116706
6.015719724
5.972589671
5.85513794
5.673350566
5.778681911
5.862741962
6.095400068
6.424341747
5.974777065
5.693143983
5.936411349
5.793930185
6.145217615
5.843053768
5.967561575
6.031760499
5.778238973
6.107594058
5.896311316
5.700665672
5.904785057
6.077531694
6.070822036
6.228936376
6.179550458
6.044191549
5.965974447
5.95340187
5.958680678
6.084867872
6.196751022
5.657965348
5.657359239
5.689354826
5.883341236
5.777673761
5.709191982
5.725204698
5.771292192
5.702006764
5.729111994
5.772560117
6.153464509
6.149273232
5.898366273
5.839877112
5.841391115
5.715099425
5.690388258
5.857268819
5.80767149
6.17123607
5.955427083
6.130425481
6.271997131
5.942714143
6.214532718
6.425414584
6.02562579
6.576727685
6.356103311
6.106648852
5.890523857
5.994897087
6.124903069
6.163127512
6.137564916
6.086463929
6.305454517
6.430552596
5.829367807
5.966689543
6.327066072
6.227858725
6.429063516
6.486617832
6.093963775
5.887941541
5.689526964
5.979977856
5.95624787
5.776274623
5.826400379
5.871377572
5.85967696
6.001849669
6.314946494
6.311706214
6.040047519
6.107422305
6.249627361
6.588509881
6.670973402
6.268810916
5.837052162
5.906356561
5.859555943
5.733397374
5.710955288
5.692732098
5.928640825
6.122200737
6.25134443
5.994788014
6.124329085
5.92497785
5.96484772
6.256632357
6.177012676
5.937666985
6.173059094
6.184480424
5.758751199
5.585507168
5.852620103
5.789248226
5.818370441
5.781103655
5.989729771
5.732635645
5.758910499
6.270110855
6.494445691
6.469353502
6.26768553
6.107386595
6.134769371
5.826451807
5.968267394
6.202145057
6.157177692
6.089912136
5.817479256
6.050295613
6.011764592
6.043758503
5.755323112
5.76783214
5.958348647
5.711107116
5.419741578
5.55126078
5.87858673
6.116064823
6.142378489
5.700356418
5.689513459
5.743542302
5.782761736
5.929918601
6.111473306
6.144912182
6.287958412
5.790137752
5.938799216
5.632596601
5.851816267
5.714922071
5.718145037
6.044937609
6.147021842
6.013531041
6.106478963
6.279790117
6.566223743
6.349115493
6.103999324
5.69964968
5.870955606
5.85370645
5.832480159
5.842559234
5.844226203
6.427675808
6.522113775
6.001919475
5.68847478
5.823525104
5.684476724
5.922246229
6.197713401
6.185148352
6.296515516
6.185896543
6.026288421
6.087461571
6.272237662
6.174580806
5.907614948
6.010436068
5.848817454
5.762998622
5.894636859
6.101253629
6.002197063
6.081277269
5.821810609
5.613768306
5.460818438
5.437767185
5.762927789
5.927810023
6.156999277
6.030133213
5.765529223
5.499057677
5.258858592
5.278146311
5.247471737
5.293614264
5.59125122
5.334061087
5.361468286
5.422708933
5.260374091
5.542143463
5.906561371
5.921387717
6.024709319
6.069685617
6.08031259
5.730778546
5.735771408
5.746986246
5.846775277
5.616285897
5.845272817
5.777615855
5.928385526
6.055203447
6.012008817
6.374090469
6.210299728
5.787241382
5.879135563
5.858402508
5.814694488
5.942239694
5.936296854
5.781497775
5.760235436
5.692928836
5.543640922
5.497982337
5.399143631
5.33849682
5.452120364
5.711249257
5.979795997
5.939247903
6.168270919
5.930165617
6.379895126
6.188161714
6.12715538
6.19133502
6.074090701
5.75544451
5.905498168
6.098858929
5.910116034
5.844072714
5.831894905
5.601670292
5.700377793
5.910654704
5.741924849
5.783703865
5.729040214
5.786005382
5.719407598
5.826503053
5.990891661
6.011770899
5.844030177
6.049623785
5.754448787
5.776306966
5.698476162
5.880697744
5.883788653
5.97477524
6.207039479
6.548884491
6.403313973
6.418259049
6.35768655
6.203049378
6.693718783
6.448552737
6.305480335
6.20662758
5.754101606
5.589440996
5.712097304
5.739813892
5.754635026
5.643876141
5.760606733
5.828954941
5.906342198
6.07921721
6.046045543
5.970368326
5.999674367
5.839963039
5.887576567
5.837239977
5.921254099
6.027905022
5.768164205
5.688711551
5.859104658
5.77576558
5.878420093
6.168986021
5.798922445
5.732899001
5.499620632
5.423388104
5.645575352
5.836588549
5.925802183
6.475382222
5.944529916
5.947992803
5.554731385
5.699471633
6.029858387
5.92177433
5.936583163
5.956267602
5.931893844
6.007725213
6.002207483
5.912945558
5.802124042
5.890529842
6.248191669
6.259630954
5.948150601
5.937575272
5.867392356
5.730250124
5.975312988
6.455252773
6.277995048
5.877871588
5.937765741
5.941481853
5.928511088
5.734905876
5.96076751
5.890823965
5.713367753
5.966409234
5.958981519
5.920702829
5.910894784
5.608219737
5.855674345
5.925661712
6.116994822
6.026549916
6.059832432
5.774488883
5.757972159
6.095288775
6.091084574
6.497877317
6.067422787
5.557372283
5.535036899
5.843930257
5.719235197
5.988349093
6.1508976
5.677720161
5.810447075
5.948784124
5.955727502
5.828006891
5.847330531
6.02222931