/*--------------------------------*- C++ -*----------------------------------*\
| =========                 |                                                 |
| \\      /  F ield         | OpenFOAM: The Open Source CFD Toolbox           |
|  \\    /   O peration     | Version:  2.4.0-MNF                             |
|   \\  /    A nd           | Web:      www.OpenFOAM.org                      |
|    \\/     M anipulation  |                                                 |
\*---------------------------------------------------------------------------*/
FoamFile
{
    version     2.0;
    format      ascii;
    class       volScalarField;
    location    "0.0008";
    object      overallT_O2;
}
// * * * * * * * * * * * * * * * * * * * * * * * * * * * * * * * * * * * * * //

dimensions      [0 0 0 1 0 0 0];

internalField   nonuniform List<scalar> 
5120
(
297.5214184
291.2130114
274.9484793
285.1076695
302.132261
312.662942
313.8098692
318.7670161
307.0871863
282.4393674
297.1371817
304.285966
304.2502591
276.855438
280.9492357
279.4545106
280.7197724
279.0860298
268.4787498
276.4930024
303.6837571
302.8629455
297.0736216
301.5544101
310.9460859
323.6959759
320.2395922
317.4915338
310.9420556
298.7832293
288.060464
280.0455893
294.7378667
319.7877385
295.7569117
317.1990065
305.2392152
308.896908
330.3912022
309.918842
281.6885036
291.7954895
306.8154718
288.9012776
311.5367569
305.4289774
298.2158485
279.7306543
288.2895479
296.7596027
314.8085988
326.8249372
316.9034514
303.3225998
296.8159131
288.8973145
296.5094408
305.958861
303.4601525
297.7723236
299.2340919
314.4623899
327.1476818
321.3074277
316.3339953
276.920766
272.4201948
301.3092641
309.6539449
325.3898341
309.6283901
318.4074153
320.0348956
334.5921407
315.3654269
291.7445116
285.3299757
281.6872789
292.775131
290.9037642
313.6359321
299.2896413
294.5860705
298.8575924
309.8336953
300.3144587
301.7875372
287.4924457
282.8556403
322.6673994
321.0106017
311.6792809
313.8217466
294.1331086
299.0881477
309.6679978
299.7387492
326.4119977
321.7832511
312.0677814
292.5867867
288.9249727
286.2279269
285.8179062
310.2328102
321.6238385
310.9033728
307.6395772
311.3061947
312.5567075
307.2745256
330.8044419
289.3943645
292.2519109
288.842293
279.374211
278.2639359
262.295496
256.0800155
280.9887865
304.8550932
308.18631
301.8059628
318.3626701
298.4208919
307.0219559
307.6365813
323.4076658
324.5436687
303.3283252
290.901297
289.0368378
288.13443
288.19789
313.8190119
317.0920017
303.3217933
294.705591
290.5093388
309.4023062
281.2429851
275.220546
275.8486198
289.9285815
308.0010125
285.2756071
308.0813346
297.5595138
304.3082719
283.3250966
304.79512
309.116531
320.4919334
332.8562192
315.793034
306.361547
308.6641717
278.9242307
288.8839774
283.2403455
318.5630654
316.6974103
309.0262161
301.9935911
281.094328
271.3795356
280.6537867
278.622208
277.7465959
275.0639111
261.790518
263.4309251
289.314974
308.3060806
304.8159718
301.540829
305.629103
308.1721297
286.85334
317.2908188
305.3806489
282.4095335
286.6171188
285.3446237
284.0804166
283.6643187
290.2218323
287.8237146
293.5932305
298.8757887
320.3907353
303.997889
296.4135527
289.3821745
278.7894493
309.2583648
291.5053636
282.3452102
313.6726714
312.104292
306.6564488
291.7644117
291.0787223
285.9397973
287.6254847
284.3951772
311.3999345
322.3217767
310.6762191
305.7508974
318.1611097
333.5505697
320.6919052
320.0107161
310.1150288
312.8255308
316.897692
336.8250795
304.3848276
293.4757697
297.1572124
323.2766921
320.6154034
301.388406
301.3321853
311.7894744
314.4664963
307.9281887
330.3414931
305.5026129
308.0609187
298.3115558
293.5138407
300.0829917
306.1378089
294.6238491
306.6431133
303.1430987
317.7754604
292.5405671
284.6311497
291.3204186
275.7604108
285.0196001
258.6084927
255.9536091
285.8954136
297.7173007
307.4471248
318.3363056
335.2418083
319.6320339
321.4688894
333.6524382
316.9603188
328.2363888
327.2147605
325.4363786
317.4120625
293.8951588
285.1125097
285.4099795
298.6474116
294.2262831
294.9277971
320.5996024
308.5296063
306.9766102
316.5016618
296.9547268
295.9815086
306.9904933
309.0005253
300.9522915
299.7717392
319.0868426
311.6605387
320.4212752
288.8019861
286.393436
289.0355487
288.3968546
290.482723
301.0734847
312.5367586
302.0315587
303.3018833
293.1788465
299.9126087
300.3570881
314.4693071
305.2498492
297.6580017
318.9168748
312.5640012
288.3185303
305.8108953
306.5013733
305.6769861
302.8836638
280.7596889
263.4730308
264.7536223
275.1815619
262.5636722
258.3299423
269.5572824
288.7394301
278.0587712
283.7449761
272.8185258
278.9610789
291.30886
268.706989
283.0096062
270.5617165
268.5169361
271.1194028
291.9362214
288.0344253
308.1404367
315.5377085
317.1897088
305.203026
301.2540288
306.1301148
288.9053592
297.4396595
313.7961448
308.014206
284.2802496
279.3896095
276.3336597
293.7939919
307.4285534
307.7074601
297.1041057
293.3343815
309.6458
323.0388895
311.6271932
319.3007682
323.2746341
313.9867664
309.5894028
318.1563242
314.5941878
322.2498434
310.8824705
302.5523502
314.0337341
305.8439871
320.6063182
306.2815528
316.1443289
307.4904767
287.7728884
285.3637308
286.0435502
293.3213451
304.8332017
301.7743522
282.1387332
319.2647492
311.7033042
297.7080231
298.8406749
301.971178
294.2619828
286.8391706
295.8359688
316.1052974
306.6465546
291.0194657
287.9144423
300.8597123
287.9177298
297.1032595
314.2243394
307.1938162
290.029962
306.8334412
291.7792623
291.3123921
302.1206527
315.9465675
318.1078713
319.0646361
338.0709952
318.9335223
306.0100388
296.1950762
306.4883157
315.7684817
313.7097768
317.5625986
308.7285912
324.6452143
309.9200818
303.312466
293.5764473
304.784994
323.6496862
313.5183768
292.5567342
316.6634015
305.3188836
305.8671287
296.3558697
294.5658611
299.6407326
305.904907
304.602649
278.5482147
288.2837036
323.3260299
321.4617303
302.1340022
292.5366651
290.6679344
292.2256479
290.2605198
299.1107758
324.4557608
327.42423
300.9159227
315.676589
313.6386044
304.2399866
291.5179745
279.2500623
289.9762008
283.9236821
286.6906042
276.6267266
275.1589704
276.4517523
288.0363692
298.2249349
289.9635109
283.8850581
276.3550433
274.3361751
277.7475338
272.3962423
288.4385408
277.7775545
293.8002642
299.2527448
303.2159842
318.4322754
320.5148772
328.547343
324.1566288
290.0964151
290.3349917
309.1184986
299.6782794
307.1165186
289.934586
293.8704161
313.6354729
309.4845637
319.342813
314.1048266
307.72647
302.6006337
311.8177492
300.3594396
304.2262197
293.8967327
292.7459408
289.1309002
258.9908155
274.0645685
303.6902175
301.8345926
323.1865718
327.4810207
309.3446186
322.8707559
303.0034631
275.4687524
286.4705888
315.2562043
333.9598403
329.7511867
307.4145783
311.9276215
311.7905626
298.4475776
297.8854446
302.4044372
294.7290548
301.1694321
284.9443229
301.3684747
306.141515
308.0095618
324.4956345
325.7127886
329.6750516
326.1235593
323.6825219
345.9499355
351.3217981
344.9225359
338.2569294
304.6842393
280.7484133
268.1644408
273.6132635
274.6998556
270.4973482
286.1036504
286.4828285
285.9433567
315.4171426
314.8503321
323.897784
322.9734247
321.3815134
340.6246682
332.5794808
335.0096983
332.8165892
294.3423246
295.8007258
306.2294012
310.61352
314.9984949
320.1018889
329.8365178
319.5676586
317.2507852
318.945702
313.8803948
304.7898832
330.2356099
332.7646263
287.0739539
307.4652349
308.624516
328.3012931
326.6084169
331.1315394
324.6409318
300.077133
305.7956312
293.4164499
290.7108906
288.9610431
286.9112823
287.4566082
287.9046291
298.4150997
297.3384653
278.7734927
274.7413153
272.1415128
326.1649575
336.2547437
314.123291
300.613148
319.4130591
319.0459306
331.0948181
324.0268218
312.184652
304.9792518
307.2770982
318.1619616
317.230991
303.9623493
318.0818379
308.6136837
290.6632214
322.0254331
322.7365241
343.9071628
283.9313104
280.988552
292.1791273
292.756413
299.4422399
282.7724211
273.6672605
287.9594683
276.1007615
284.4743436
279.557289
292.9165039
306.3663965
292.042765
301.9410061
289.2115033
285.0131917
281.3230848
285.4265581
280.4781086
273.3112644
258.1339061
268.9577923
255.5372026
275.8157485
306.6228094
297.5041722
302.1366118
315.2205965
309.7343757
314.0484422
311.5927357
308.4453743
286.4639392
278.3690209
302.7687978
303.3657327
297.4788363
294.4767547
277.6654582
284.9197122
292.4787592
307.5914654
289.3054123
279.7423059
278.6108119
275.576798
276.3398001
268.5327666
282.8073982
297.4865291
294.4689046
299.8135736
310.0904275
300.6530466
297.3026247
295.9547788
313.0380783
316.2354678
300.945114
323.4526674
319.4722775
327.9347317
329.0799418
315.689554
315.0206988
304.7763866
301.89225
317.3493242
314.9644673
322.4702285
313.3874783
325.0332164
316.4059861
308.6441184
318.2428064
312.922775
328.610311
317.5059595
313.0803227
316.4136872
300.6528709
292.6290093
288.3921726
274.324699
280.0811578
297.5533565
289.3551003
277.3251089
288.2024984
286.6523946
315.7954137
315.3104344
325.4041285
301.5623372
289.2116071
280.7419004
298.6498872
289.0838066
293.2100944
301.8754491
286.7967781
291.6517308
289.9291003
310.5255282
309.7245908
305.3933935
312.1059217
323.2537026
300.7338878
290.3491571
316.5314111
316.514597
326.0837688
310.9574538
307.902517
320.69298
316.3886167
300.2234967
317.0507226
328.8794138
313.8802154
306.2057092
326.3067881
309.8480633
314.1888542
315.4129205
315.2220207
294.4090569
294.7033281
302.027785
294.6832477
302.6282318
295.7219774
317.3212579
306.0979215
305.5237901
302.5088789
296.2543326
322.5586612
335.9809535
324.1957112
322.9189289
312.2697133
318.8429558
329.9057337
311.9532682
276.98274
276.9275999
282.8287891
302.8400116
327.2014352
309.2616493
319.8461616
293.8948959
286.0113444
278.4930479
302.5617708
311.1562171
338.4251731
291.0284867
307.2018211
322.6405551
339.2541764
338.1492665
325.1013563
320.4817627
325.8213813
303.6820883
304.9612906
302.3790898
289.712972
281.4382898
291.7504603
304.5894354
304.6083557
280.6567782
279.6336311
270.3488418
272.4705267
312.8857077
306.8978834
288.7358918
276.6378276
291.3199406
309.6221448
307.3437398
277.2487563
298.6011435
311.8953887
301.2713996
301.8959067
303.2324115
304.4927863
296.9430366
308.1761983
293.2788462
295.5226749
285.6312182
318.9976237
307.3571036
312.0362473
303.6190042
307.8852217
319.9585687
322.5249824
328.3522168
323.4414639
318.9984537
320.7186059
309.9399155
306.6087179
300.7044242
331.7436622
350.701195
330.5148412
315.4739284
302.3650902
302.9422244
309.6922851
313.7878455
337.1255335
328.1119285
324.5609519
302.9848479
292.7857856
277.3216208
276.006091
279.9494372
284.1702007
267.7941329
263.9636353
285.5656897
279.9695511
297.2133663
289.3039387
315.6920712
304.6705187
319.8059331
314.9346076
282.6236556
275.1068214
289.1442584
308.3015497
310.8956385
303.0038422
306.7764268
290.2359849
309.9726652
316.3961039
296.4209333
295.3186207
299.0207465
276.0623125
283.050286
296.5960736
296.7020563
289.9492224
267.118883
280.5360466
310.8888875
306.3181351
286.4960396
297.6240886
312.2715498
308.4189713
314.2102657
331.1795259
308.5017173
302.1828045
293.7270276
293.9514907
288.6061528
279.335177
297.1644483
310.5905553
308.0095227
313.2938354
331.8401491
314.5017368
298.35354
316.2819765
328.414216
329.7503042
312.5618687
321.4605535
300.7376171
307.7396143
319.0663729
327.6585203
324.7164421
314.2784326
305.0820677
306.739675
294.9972884
288.1355578
291.051989
311.8751766
317.9687602
319.8734411
320.8091915
328.7015516
351.9511159
339.1495979
329.417165
310.8001487
316.7171896
318.3561719
327.4404729
319.5312516
312.2310215
290.3205312
306.4621397
304.4424827
306.652183
314.4538734
319.5564251
298.3436004
293.4531258
301.984289
310.3561766
308.290034
295.2386197
311.7698784
276.4043114
285.9844621
277.7730495
269.8420888
269.118815
274.2613434
266.4988585
275.0918561
292.5287277
304.0457952
293.061456
271.7938361
277.7065669
275.4955479
298.8370397
309.4840198
322.7208129
281.9474617
279.0657669
289.3459057
316.6010628
291.6833046
274.6841823
304.5043382
285.4631513
268.0935952
274.2375659
280.0298706
299.1878041
305.7620858
312.5514203
309.4792611
300.3073826
306.4410113
311.883622
338.588649
307.5297094
297.5157028
287.435833
283.0039119
266.099197
296.9703647
302.1865585
305.6984642
308.3265291
303.3261004
304.6816466
313.7301309
301.9366141
299.4706468
309.6411605
305.8660098
307.9068545
279.7338753
275.6494067
293.8240164
309.469593
299.1822682
319.4442843
308.4757004
319.715493
320.0700624
317.2080803
319.3281552
323.0307875
321.4091112
338.1075985
340.467373
325.0598331
329.394143
339.4079928
342.0475538
335.9026012
306.9443802
294.229565
317.3716049
311.3521542
298.2502106
277.209173
289.1367197
296.0427174
287.365185
286.4808124
300.9074438
313.4808117
324.5846743
318.0663392
315.6717086
308.1487954
300.9006778
284.6427505
296.330326
327.3226437
311.0837321
329.686355
321.0407811
280.511167
290.4018336
273.5981947
259.5532268
273.0506288
274.8077013
290.3092304
296.4104921
309.963084
329.3438209
333.2790906
323.981321
307.957291
309.2406667
343.4561252
303.1261898
296.3932534
290.5886773
274.7437105
285.8114892
298.4053348
301.3665012
309.5470411
302.9596947
298.190969
317.6937509
319.8983287
322.0503726
303.3874293
291.1287747
278.8415954
294.4887854
299.2415996
304.3365465
285.9118211
302.8101518
311.1764793
297.1718723
296.2245637
288.874496
320.198973
316.6216651
301.0288806
290.7612502
284.3945187
283.1407058
279.1799713
303.3313296
301.3345175
314.2145109
311.535816
292.1592563
285.8571112
269.6809606
268.4867908
281.9496796
302.2566139
322.0078823
323.1360672
317.9420249
322.0663117
305.4833798
312.8317534
330.7427959
319.1199002
310.4485588
300.4878985
291.9146081
290.2410524
303.3004016
304.5946147
290.0143125
298.9676062
299.021881
301.2297876
282.2769991
273.3397459
275.2761377
288.8925668
308.7494851
282.6022253
286.9632149
301.1508858
312.084424
335.302881
320.3453261
299.4804046
323.2065583
316.8391326
319.8293894
303.4526901
299.4364431
294.7194588
302.022764
294.1623487
296.06701
303.771955
308.2569255
292.1031519
302.8895851
318.517572
295.20817
304.3049184
293.5887252
291.9267197
285.7677895
281.9007172
291.8630477
276.7483628
272.6832946
291.9236303
315.0974848
363.9725262
347.0063932
312.3506278
302.8264847
306.5286145
324.5532898
337.6702136
329.5713053
325.4832904
331.7843184
319.0929644
326.9380861
314.0089078
298.147912
283.2889
286.0400304
270.9295533
280.4529633
292.1909968
311.0007427
308.7710662
308.5678825
308.3456585
326.5523225
317.8531251
311.3703836
320.6340246
321.2372257
287.980276
290.1307261
272.2276812
286.3099473
295.4153794
302.0100409
299.6219192
294.1001538
285.5319709
304.7192573
318.5028377
338.9342428
331.7307272
323.7084138
315.5661172
310.9922325
316.5536243
308.7065438
301.6208169
294.7281342
327.8936263
317.7334666
317.6319404
312.1347578
291.5550125
289.742854
294.3550545
307.3128098
336.9360178
340.3251046
326.0817118
323.5038884
322.9345956
301.6255756
298.850622
276.6118918
272.1040594
292.46111
294.1785324
318.1879588
307.708668
304.2413771
295.7424304
305.1915732
315.4960999
303.3731512
293.2344597
289.1645122
296.7338804
311.4760075
305.7985556
297.6410782
311.355809
298.8309941
302.56117
310.2333965
311.8964286
307.9076468
311.086783
298.5355049
285.7383023
298.6960311
312.7759081
325.1663654
312.7065286
301.8521003
308.9837279
299.8627276
299.5098883
286.5252256
283.0974401
290.4874515
297.1658977
289.4379572
281.2831817
277.1903948
291.1985767
292.4578952
297.9912154
277.5523087
300.6793249
292.3254927
282.6806362
267.7565421
278.1319707
293.6025351
299.9324273
309.39795
285.7645175
293.2202507
302.4998634
314.8081821
288.2148655
285.2790001
286.8698242
283.0390734
273.6464588
284.2886773
281.5794347
281.8486689
257.4168392
276.5532062
289.3541517
297.9339259
290.0745869
292.7401255
267.4633557
272.5083637
276.7104736
291.662203
287.9730398
285.2682322
285.2752693
286.032089
268.0313058
282.0559297
271.2778042
284.6105113
298.0697641
264.7661131
288.3171823
287.8802458
301.0217747
302.2121886
299.9306042
297.795465
293.7494941
287.7348209
279.9965403
279.9916805
296.4937919
307.2725955
307.8392138
325.2650888
340.5000108
334.5417607
333.4740241
342.4351998
317.9761767
292.3717849
329.8468572
326.9834607
328.7696379
324.5224481
314.704041
334.7063707
328.9264812
313.4691169
295.2213397
320.7176833
293.612614
308.4291054
289.2505356
296.5618877
315.1405765
312.0712806
335.3761502
337.1410802
321.239403
335.4205423
290.254164
301.4285252
318.5952815
313.6135634
285.4668969
293.4441163
308.9996861
321.8324211
326.7886953
313.3209863
303.5678784
303.8115908
310.4307861
311.1116024
303.6037383
304.5184748
317.1297646
315.9339365
301.5028413
291.1746071
315.7859087
303.9814564
295.9514095
316.8480358
320.571284
321.5404809
290.0692389
305.5262244
295.6510085
312.778906
299.5347801
301.4571149
313.6572888
285.7615114
287.7470582
299.0957801
284.1911548
260.4068565
275.2133923
292.6553123
290.0923634
296.6350394
300.1793163
298.2595353
315.1596921
311.2280746
311.8768546
273.5099231
286.5015594
306.7723606
306.5342526
292.4043134
299.6380704
305.9987156
311.8215827
318.6338563
331.6189975
327.4825182
312.7420934
299.7223257
309.4726361
319.5213078
324.277192
308.0026662
320.6628657
315.1065384
320.9559272
329.2945657
328.7164927
325.6726966
347.3045315
358.6336593
347.5278801
329.071227
337.0973659
327.0836077
317.1066802
308.3319379
289.5618477
299.4323092
298.4074309
313.6154466
306.8673414
328.3755675
327.8721509
316.4478135
307.3646778
327.8351985
323.813814
296.2427883
306.703104
329.4863995
309.2847506
319.8450171
318.6617834
312.6700753
317.71697
330.4632868
338.6148218
304.7254832
281.6247717
271.299731
295.891959
314.8176014
313.0439093
338.2197162
339.520563
315.6143195
314.451071
316.7590264
307.7861181
326.9403888
345.9503304
319.2584447
303.0803237
293.7562102
309.1337934
287.9867992
289.9513858
281.8429655
301.1985711
322.1583541
321.7675345
320.5853932
307.7619802
295.7555982
280.2708331
262.3986579
269.1235601
291.0594632
295.9999481
310.4812997
306.8999404
308.2842497
289.8791944
280.7120919
278.1258904
287.2150557
289.2420873
300.3025486
299.4597783
292.3962981
277.0955683
283.5564827
302.8708607
292.0529069
307.7672178
306.3274611
306.6016898
305.3156385
303.7654493
299.6968873
306.9805454
297.8776051
296.9547463
279.7598555
292.6126315
281.6074456
286.6489062
294.2341958
296.2574142
316.1491354
327.4668795
306.3149981
284.4561017
289.5886088
296.2157047
307.7578638
289.4944313
279.4216553
276.4549278
269.8211427
264.4605413
272.6103572
274.7531019
276.5529052
280.9605576
303.8215434
300.0690594
293.4640433
288.4206511
281.7884184
277.8132611
282.2548814
268.197711
270.9093465
287.9958208
297.1376419
268.9654172
274.7935652
274.6054484
270.8263118
275.1694814
282.9682511
288.827142
292.4196784
282.6879703
259.4054872
273.4817729
277.5273749
311.834561
312.5921992
313.2890521
298.7250952
297.4360443
299.1660415
286.7470062
300.1026144
288.1914321
285.1575654
284.0372712
288.6223809
300.1788999
289.1678843
295.9134809
290.5636936
300.628656
302.3990788
287.5054458
296.7918906
270.6939908
259.2075534
277.073675
287.8296738
286.7674166
301.9202568
303.5019444
284.0163227
278.2749759
272.5523549
258.6399463
259.1094886
290.1647842
289.1097424
314.9144389
318.292491
313.0255231
298.6956058
305.5896716
284.6773968
283.2763987
295.8171269
278.5420341
273.9338117
272.3890681
269.3488849
261.7845258
266.2562594
254.4385485
253.4193845
269.1359852
264.5813768
262.2613192
273.9156348
286.7056554
296.9299249
303.36438
306.3019637
314.0829495
293.8348725
326.189159
306.4806864
288.7791134
292.4838535
299.7815846
330.3060573
341.3851974
335.7172878
338.1747432
336.1635429
311.0311355
305.428883
298.1242439
301.3539958
294.2781015
309.4181854
324.1608142
323.3258305
297.5448982
321.4634575
326.2669463
323.1990306
347.8682934
341.8625386
334.4549238
310.0431613
317.8300672
306.8257104
290.4360789
292.6201817
302.1261974
302.043995
310.9121977
314.9533568
296.0529942
320.8385894
325.5062595
321.6313343
326.1461512
317.6617043
272.7411694
281.4216276
287.6381242
298.9435257
280.0557955
261.9630369
267.1933734
300.7782234
310.1934465
302.426646
309.8505346
268.3442414
270.8258213
269.2924682
295.2480101
322.5847205
296.151869
316.5833253
310.3273259
314.3728024
296.7431735
287.1757538
303.0524869
308.1822745
318.2029446
330.5486041
330.612724
309.2250912
292.8261082
301.1849964
283.1138168
314.8543933
308.7367515
346.5622581
324.6723618
321.0507593
306.4800751
317.6885554
334.6246546
308.641715
321.4440853
319.4384508
308.7485602
308.2059256
304.9425584
313.6943754
318.0100797
296.6472103
295.3279908
305.3893434
302.7881204
314.0055146
284.0058352
289.1738761
281.7866641
274.9479366
262.8059156
267.0452813
283.2894831
285.5616382
300.9457479
309.3057136
327.0225851
331.6522852
322.2743872
341.9306601
344.1593464
334.2276765
316.384322
295.4627098
281.838083
276.0459995
290.105252
290.6214994
290.8125182
301.0106642
300.5449988
318.7931342
307.9104556
303.525023
336.7556726
337.0242475
347.2917614
339.4781397
335.7368768
329.4288639
315.9502062
281.9079944
275.8832217
289.7845902
297.4488252
292.1540809
307.0540927
294.1320435
293.6057556
295.1024663
287.7223645
304.4022517
327.36368
321.6604189
333.7175957
317.8942745
293.7967114
284.9174104
281.7227654
295.1030629
297.5197393
290.8666411
310.8291493
314.5677524
307.2242609
300.7609033
290.6793979
305.2918206
329.159139
329.8269922
325.7705917
319.1374712
324.8649236
333.9467524
272.3768901
284.7366291
289.3722563
315.6956525
318.2427956
321.4017112
334.2412544
336.171716
314.8902296
299.4848007
288.8384451
278.6552354
270.8308829
290.9998696
306.6562698
313.6519662
310.214222
306.4480106
279.6229844
281.8596829
306.326956
322.1429635
307.0331584
284.5402982
294.6212213
294.0182243
305.5177914
306.1324794
317.9858384
307.7694252
317.1122567
307.4243924
291.6537721
292.3394096
302.9134982
295.4870153
304.2528681
319.7112383
304.1276122
309.220846
303.5643326
301.5277324
291.024334
293.7193868
290.4009132
293.5256391
306.1157827
302.6304575
314.1583831
302.1503418
305.0146744
307.5438809
297.850041
306.4253551
319.2290534
311.9020236
308.3298355
312.0426847
320.2856807
298.5420411
285.3988087
282.285074
288.4592107
287.1867146
295.1491687
296.3152181
306.7693857
304.360801
299.4613001
322.2863478
297.9208753
276.4459699
274.2075966
270.4836429
258.2138694
266.661903
268.2092039
259.9780577
288.0655342
291.4590514
260.169541
266.6854042
281.1418318
303.3136016
302.8688071
289.4967928
277.0207449
272.8967077
279.5026134
302.2404849
308.7453815
305.5509433
324.9652064
310.1467663
291.4792397
283.3568746
275.640329
272.5688133
274.90961
265.6973844
298.462091
292.8693887
291.0570381
276.4526787
295.5397386
299.7673147
316.5716554
287.6349226
292.1762232
287.1793793
285.9928507
288.1099307
297.6719223
296.0114381
299.8153205
314.6025736
341.2697567
333.7019177
339.7365248
340.8594797
314.1373945
309.0702302
287.4779596
288.6711927
304.6131774
296.9180091
289.4162022
293.9240433
306.1539771
306.317669
323.0545793
321.3044474
313.1877986
312.7482197
320.6749855
309.9378706
290.5298832
299.7649336
309.4599134
314.6302118
313.1102214
294.6857284
313.0277257
320.5607361
305.5765358
300.2832366
297.0871148
304.3266441
309.9389258
284.7916667
281.4406524
287.7166887
281.5547284
282.3210486
280.2602643
274.0964864
277.2353568
285.1376294
292.0043113
304.107203
302.1628115
324.1115141
324.4680508
322.154827
321.4498609
329.042427
321.0039481
329.2287156
325.8270785
312.0231337
339.2368746
342.2773753
348.9903244
348.8713764
331.8706123
318.3957634
295.7933807
316.3738494
316.4362701
319.2669083
334.7906562
292.1070232
301.2591291
312.4113985
291.445157
280.9970581
275.3467031
285.4190013
286.3572614
280.8813978
272.2560789
274.1460518
269.7604721
283.9736213
272.7911201
264.543445
274.4678305
283.4273943
309.5513814
321.7696008
316.3435671
312.6141415
303.1894702
307.2449217
314.4330937
317.5026385
310.5912042
322.3367381
317.0389281
308.7770646
311.8839165
304.8070507
305.2720336
311.6429798
313.7074134
324.1290898
335.8665255
314.7872529
314.6374433
314.5221491
353.866613
340.2422776
296.7710327
311.0536116
326.3400754
329.1737308
328.3886335
326.531277
324.2012754
324.7616834
317.2283648
319.3589826
298.9623574
275.6385784
299.5892432
303.4738676
319.2539659
303.8278468
312.347141
329.7180853
277.1871044
284.9183659
285.668292
278.1354762
281.5384507
283.6812339
302.7791087
304.9860751
289.1004481
271.0902987
267.0021998
276.3745056
295.120977
307.1020613
313.822531
313.6404179
308.3755114
275.7654908
291.1134584
293.9043479
289.7523069
298.8633774
289.7396752
297.1867802
315.1726844
313.3493665
294.2848811
293.075284
278.1409767
275.7338928
288.386825
289.9928765
293.1672611
302.5359665
282.3535226
277.4293442
304.1650455
298.0020325
295.5656406
302.6563177
283.7561024
293.8242449
294.715812
308.5581875
315.6083273
304.0337639
307.9703292
303.7302458
306.266462
287.2049475
273.7470465
281.8284523
258.661715
269.0452464
293.9261189
315.9752988
318.5421341
312.710728
306.8677362
281.5216107
280.0586852
281.6799571
286.8852383
292.336776
299.1122712
295.7388677
300.9261403
292.7967066
285.2001705
285.1043499
278.913641
276.160331
295.7227748
279.044983
266.6559709
261.5866291
276.4657558
277.5885639
282.0700925
292.8826371
291.2875807
269.7914332
274.5871502
263.5214328
279.1973597
306.7371146
287.6824502
289.9586178
293.1366208
281.0345982
307.1894567
314.2155044
310.3823846
309.3258649
302.6600613
281.2878139
304.5216112
310.2107539
324.0338415
303.1737674
318.0374738
313.2529289
304.862377
276.7192861
279.169939
284.0975813
291.1472379
297.9381021
286.6639443
289.3785071
271.3110441
253.9691927
289.5262725
324.8462403
311.5767614
319.8379722
283.8071158
302.693918
293.553766
300.566073
299.3694039
272.9955814
287.7333841
307.1126065
301.5676367
293.8992264
294.0442356
275.0316848
270.1592724
276.3386818
277.6563625
286.1456247
293.4874567
285.4058171
278.5077604
314.6444013
314.5503482
310.1209644
298.2860861
302.8693876
309.290353
312.2379767
310.1074442
310.2617636
310.0681241
308.9311862
285.3437241
294.7137774
305.6468477
304.2204662
300.4190826
309.0990319
307.7620002
296.3540468
306.7665686
287.9258796
302.8084842
279.2469462
275.3380253
286.8872596
284.8527998
276.6478807
305.7978292
279.2071784
288.0057259
301.1699775
307.4012516
296.7707967
285.1423074
289.6163767
294.9506786
293.5196085
289.6973631
303.1732136
335.2005662
320.1851392
281.6254595
285.7341178
279.610342
269.2746457
293.9481907
305.1891127
316.4696905
311.1538972
295.8734361
302.5109462
300.2641619
293.0120403
306.4320159
306.6469882
308.5016909
297.5658206
299.8937449
290.8106686
283.888052
272.4914863
261.0582641
281.8023576
305.8783089
298.2648351
298.3458728
309.8280709
312.6067024
312.7854081
295.2674184
287.1487372
272.3030009
282.7945627
274.5116611
289.3536214
278.6035053
265.7302355
270.6048325
278.340518
276.4496169
276.7454173
300.2261374
308.8315482
295.1984235
306.0721398
294.36458
291.1573185
285.7361744
285.8582301
294.9882429
277.6707595
274.245181
274.8621665
269.3345293
269.1870035
270.7258534
286.7625549
273.4664399
260.0773514
270.5648397
276.2044035
299.8071012
286.3610144
285.8482375
282.6707615
314.2768472
320.2930018
317.4377527
323.5730099
333.3847134
321.528809
306.2651478
296.1646411
290.2863761
314.8307498
327.9730398
318.7125557
324.3680349
331.0807855
321.9115273
311.1290722
297.0433455
322.6118127
308.6197598
315.4723301
309.7866899
327.8455181
320.3193087
298.7994176
289.0595791
297.3995176
293.1506528
286.5447646
264.944965
280.3522724
292.3906344
324.4039173
316.4776274
311.3605518
302.5169612
296.3175713
303.0190607
286.1236202
282.32851
308.1745198
323.0855423
301.2021245
306.0483293
311.801369
299.5553925
291.1482825
282.8332926
290.6433727
301.2446655
294.9833179
290.7316282
302.2416922
311.4193914
301.924507
309.3426415
308.3562963
304.2027879
277.330873
291.5894861
292.3187749
280.2793779
305.409159
328.7997511
333.9919154
306.5726572
292.5051371
285.5491221
288.6625267
301.1229028
320.9791007
332.621522
327.7075671
335.3900892
331.5420427
315.4175267
325.1579866
327.7615713
322.5400769
327.7711897
296.8414077
292.3024996
294.8133987
283.5708489
288.8963786
292.9878721
317.401828
315.5546923
303.1086043
301.0183494
326.9080527
308.1904748
327.6464552
327.4377098
318.8161454
293.2124213
262.6605682
271.5463234
305.7758872
297.7853217
293.8841593
309.0995079
309.0141271
301.5312724
299.4984489
305.5318802
300.8035194
311.4018456
318.2211611
328.4884775
334.958184
324.3953318
315.7497114
291.7773513
287.2423783
284.5221891
310.214191
293.4334972
293.5851277
285.9430998
282.8332269
295.3876534
298.9013906
295.4622592
282.2093657
274.2075241
291.9022973
295.9488276
299.3014658
294.9945123
288.8240349
312.4611061
322.0955926
322.4962055
319.5511254
314.7451714
294.908412
289.9224899
284.5097707
295.5579033
294.0495067
278.8406521
288.6369567
300.5832165
288.2309444
294.2653136
278.0735981
273.9285835
267.4337751
280.0567044
276.1737228
273.5610022
276.9269479
256.7901156
260.3518971
263.6318969
268.602425
293.8785122
293.4043195
284.227105
278.0169456
306.1237375
308.6618128
290.6774798
286.372064
282.745999
268.5539284
282.6561236
284.4928994
284.0838556
292.7197803
292.4511557
296.2791243
283.9660039
268.808799
284.9144003
303.331414
298.4493063
301.3404249
304.2590442
290.5173074
298.6577949
308.5806907
325.9182168
327.1053408
302.493583
284.2147772
273.0112884
252.5728737
290.0933445
293.6486559
322.9051619
305.5614356
289.1638518
288.0769467
286.0292876
285.6934482
289.7916548
278.2528703
282.8767725
286.5167467
311.971035
299.6528507
281.7259335
264.4608692
291.7534748
296.3549414
303.9245026
316.3463372
296.4534071
276.1551872
288.9866082
298.3960665
300.9844582
292.6218117
288.1303909
288.0818783
290.0927515
298.8696279
304.0600522
297.5558297
289.9103567
292.2223466
294.3737949
327.4921765
317.0986015
303.2182611
280.3418203
278.9826467
285.1098778
303.873673
304.3255045
285.1187537
274.740298
269.3078791
296.8394091
322.2296931
313.6612124
302.3570655
313.5700975
285.1946543
280.9247413
309.4394684
313.122633
293.4964574
289.7096027
301.0724772
296.3350317
290.5571475
286.9096126
303.3651633