/*--------------------------------*- C++ -*----------------------------------*\
| =========                 |                                                 |
| \\      /  F ield         | OpenFOAM: The Open Source CFD Toolbox           |
|  \\    /   O peration     | Version:  2.4.0-MNF                             |
|   \\  /    A nd           | Web:      www.OpenFOAM.org                      |
|    \\/     M anipulation  |                                                 |
\*---------------------------------------------------------------------------*/
FoamFile
{
    version     2.0;
    format      ascii;
    class       volScalarField;
    location    "0.0008";
    object      overallT_mixture;
}
// * * * * * * * * * * * * * * * * * * * * * * * * * * * * * * * * * * * * * //

dimensions      [0 0 0 1 0 0 0];

internalField   nonuniform List<scalar> 
5120
(
296.2839952
304.3274813
299.4683047
293.4974616
302.7333829
310.0150018
308.6690692
301.5398703
304.0426959
303.0575604
311.1914965
308.7523896
305.4262316
287.5045393
284.8732887
286.4118215
282.2835679
290.6226977
289.4236323
288.4580028
297.1831372
301.7862845
303.1594014
306.7384125
306.9496639
309.5207457
307.6656506
315.4986965
315.8178944
309.1982835
301.6909879
299.2118282
301.1621085
308.9269549
301.9522684
309.095643
292.691656
290.2432894
301.0523183
297.4614667
290.8220024
293.5432146
292.2036515
283.6673377
290.2742669
295.9413863
306.4602615
296.1762931
297.2278831
297.2576421
299.0017067
299.4279463
300.0206061
299.4166798
304.8069035
299.7345542
299.9866095
304.2428222
304.0093569
296.1653211
305.6698771
303.771366
303.1510595
306.7980064
304.5148935
302.4461761
301.1989894
306.4741908
306.4513462
310.8254075
311.7640906
312.390005
304.2139021
306.673065
307.4595277
300.8749454
306.0630294
306.0751273
304.3218662
298.4357872
308.4083908
306.8436523
302.0879073
294.4367646
299.3532093
299.4689681
307.8630878
301.5999989
294.043386
295.2058379
287.2930648
290.9825142
295.9524009
295.4487885
300.0923469
305.3059216
314.6535458
313.7990837
317.7271032
317.51016
296.664709
287.5936371
307.5071195
303.8331666
307.5110245
305.8402991
306.4675875
312.4950777
315.3445125
311.0832342
311.6816073
316.9900214
304.6687065
305.7963342
313.0160445
318.3918444
306.9605955
309.7941526
296.9768582
296.5459408
312.1809545
310.8657985
298.7609184
304.3754054
303.8844906
309.2376882
304.3438314
311.7581256
307.8903971
301.7938491
290.3294879
287.7861732
290.485146
293.2335173
306.9030225
314.9035478
313.9730758
306.9811527
301.4859116
310.1952737
284.0597453
275.5440835
285.1999156
286.4021147
291.9217866
286.1639359
293.0978827
288.088072
280.9486454
283.0707769
289.6419385
286.8010944
292.5126074
298.6761202
291.9114343
290.9808459
293.2666072
285.9950015
297.2990055
291.6743895
295.5900682
300.8367655
298.7397588
287.595252
289.423615
283.5376576
285.5043938
294.4818152
296.6490172
291.0967462
286.7737346
292.6055842
291.8203707
296.8281066
299.256004
285.9710433
286.1625395
290.5039805
284.2641725
296.3759162
293.2337813
286.3971392
289.4080981
282.56958
286.4659236
296.0362903
298.9807294
292.5740399
297.2159732
298.3066241
303.6401733
297.0498064
302.0698598
298.4666556
294.4112384
295.7579406
292.1573892
289.4923623
295.0281212
294.1197405
308.8750524
307.6679431
306.3469631
301.3392747
299.3699681
293.3739828
298.929735
307.1383477
300.9078999
297.8133702
307.7279935
311.4594195
297.1965125
292.1485942
299.1687199
311.1660263
310.4692239
313.7818381
307.3976723
301.8870308
299.101781
306.7572867
305.1308432
301.0145792
296.2835172
299.4998411
294.998434
294.3294978
300.9745996
296.9771406
289.2539763
287.6035318
295.4211304
307.9820756
308.751303
310.7712334
310.5691972
298.6360558
307.982516
299.0806949
297.9790908
294.4435182
294.2714321
302.543998
293.419838
289.5666676
303.9045478
302.2372219
305.7628132
307.6818621
316.7654031
319.918536
312.0236691
315.8473195
309.3151482
315.6593233
313.4435902
319.7759183
311.2992876
299.4070683
304.3773862
305.3510618
306.3857677
306.6835804
303.9065007
315.3982389
307.204374
293.6900158
299.0620379
286.383774
299.8459544
304.7774079
305.3342804
300.6536088
291.3728924
304.0962881
302.261142
308.4272553
295.7236745
304.5398476
300.932349
299.8452699
297.0997012
294.8550534
299.1045919
285.9407579
300.2628753
300.2626774
298.5236032
303.3321998
306.2835525
303.1308206
301.9557619
310.9773587
314.555742
311.5932733
313.7234058
308.0198226
305.5403732
296.9151066
275.3728958
274.0374234
283.9942496
298.2857918
285.4049611
288.9154311
288.7217145
300.6289834
304.4854186
296.5194927
293.0039537
298.2589884
311.1703223
311.5293642
303.5713573
300.5077537
293.7426665
291.5337369
290.9133934
288.4196819
288.4553803
286.9978122
289.1535601
290.087213
297.4399895
293.8689369
296.4151348
300.266413
305.7280613
307.6766854
306.2998288
296.1577177
292.1748022
293.9681794
301.3071212
292.3355987
290.6126701
286.4549709
294.1588815
290.0090283
310.397265
310.563686
320.2411324
317.5025929
310.6402224
314.4300833
309.4815688
307.586552
300.1297765
296.2765938
298.7682092
296.8956773
296.2016474
302.0493717
302.7792817
297.4971311
301.6604769
306.4192095
308.3591465
314.4690309
295.894527
297.1609007
289.7266649
302.7622033
303.4893024
296.3039055
294.6007273
292.1470898
284.1242281
283.4957215
285.7178591
294.7463908
295.9263786
296.087026
298.5722141
312.8630611
313.2224341
309.383507
312.7769195
298.4222139
301.4607133
307.2851421
304.9961548
304.4471453
297.7120573
302.8565351
303.5978263
310.8640814
323.3573533
317.625314
309.3507815
303.9478072
304.9477084
310.1352596
301.3573108
300.922472
288.7657231
296.0349318
294.3883014
295.2084212
301.5382219
295.2360556
303.0234155
305.5131056
304.1417377
312.9140985
304.4856615
305.1720761
303.8841595
307.2225611
307.3044382
310.566685
307.2177138
290.4435693
297.7178336
303.9948406
298.1673893
292.2868606
299.0086087
302.5778529
304.6890836
310.363157
311.1375873
317.5018154
311.7313978
306.5699138
300.4672249
295.936856
298.0161432
293.9793126
294.3735846
299.8993912
295.029823
301.2974932
301.4522569
295.4196281
288.9954211
295.1087996
299.8077064
301.5886683
293.7356538
299.7991091
300.6585508
301.5889158
290.1502023
300.6674121
290.3374501
286.8569077
286.0861952
292.961317
305.4697332
307.3167207
319.680735
320.2964709
313.648566
303.1830134
313.4648383
307.1991132
295.3877707
290.5494677
296.1314314
300.3149996
300.609796
300.7941441
300.2534488
297.6700525
300.8566257
302.5547053
294.9050223
297.3336751
291.4511764
290.9667455
295.5124393
283.4461706
292.4655577
305.2324982
298.1343911
296.4950233
302.6957285
301.2730413
312.2469098
303.1488595
293.3112122
289.312134
297.9880769
304.4700435
305.9733351
295.2611523
292.3930006
291.1349023
294.0478968
300.301128
303.3658016
303.8631665
296.9554829
291.960476
300.3200374
304.6506088
307.0187639
312.2999887
303.8076304
299.9707751
304.1699419
312.3408452
315.0387577
315.456545
318.8187676
322.995426
313.2003051
296.4698506
294.072798
300.1622131
286.2087026
294.7695005
305.8340066
301.8899623
295.6464726
305.220622
307.6870837
302.8275489
304.7850857
303.5514421
316.0886086
303.0768919
303.9022831
298.3880798
299.2389881
305.478771
305.1193426
304.3491692
296.9361378
289.8757342
293.9333725
299.3317236
288.2383688
290.6100393
299.7344712
294.7703744
303.2078441
306.5322011
292.3404267
294.6878364
289.5485644
307.7892558
308.1431162
306.6703224
305.9651389
299.4979837
294.5530879
297.8157779
297.557863
303.0594168
304.3341786
303.9218258
309.052409
307.274138
303.1423955
294.0447496
297.25436
295.6637175
306.5584221
312.6031906
302.227155
297.4192893
301.8831086
307.7670835
298.6133335
291.1567854
297.5120668
308.3349867
310.0924713
310.9036371
311.4584324
308.6152169
302.3335938
300.7787308
304.7457291
305.7632118
299.5230445
304.1409611
299.3725491
294.2967775
310.4000771
306.7565361
308.3897001
294.3599617
296.9593658
302.1822762
298.5789181
303.1193992
295.3015657
305.1865815
307.006473
311.5377221
309.4760063
300.4391773
300.6459372
310.0410599
314.2688043
301.3992342
300.4159017
291.6084151
291.3320813
296.0610967
301.0032748
315.204334
306.922504
296.3424441
297.4714623
294.5738481
296.80713
304.4747022
299.7516575
296.6460177
291.8138003
308.1542089
304.8472559
299.8572163
297.1403375
297.0029737
294.6373469
301.1445057
296.8876267
298.6809717
289.3767085
284.4099136
285.7626034
288.6486148
290.2183684
291.7704326
299.1207944
299.611277
299.424995
293.6757977
287.5519749
291.1173479
293.3589539
297.4988254
295.3891066
297.3076766
304.4726689
302.6049314
307.5462073
301.5983343
303.8178197
310.182791
305.2548714
308.902823
304.4323451
299.7810804
294.1774439
304.2925122
307.0065815
297.3089009
298.9562152
296.9838535
294.2653374
303.2964273
300.1577821
300.9502103
308.6944092
305.10262
305.4120942
302.2694019
291.3374578
293.1415194
294.5249876
294.6013652
284.0403034
287.9455933
286.067996
292.8704317
289.3038224
287.9329892
288.0698934
288.724715
283.0683058
292.6057915
283.6655074
289.9715179
297.6043594
302.7555503
296.5920115
297.073074
295.8561426
295.1368055
289.8806005
288.6566293
287.3477386
282.8680529
282.0247732
291.5645801
291.8339454
304.2289922
313.8680699
311.586687
312.2933715
306.9414006
309.0977464
306.3942031
300.6632681
288.6778554
284.1643501
293.9585084
295.7264035
300.5252595
294.3407638
291.4752131
288.0933429
290.8316958
294.8390311
289.8113331
291.2134195
287.876792
288.4782256
289.5556866
292.6611859
293.081371
296.2161772
305.8464256
311.9556087
307.0853229
297.5266286
297.1322189
297.0564046
294.4997225
303.2157778
299.1737205
297.505574
291.2269693
298.287319
306.4882524
304.2955421
302.9856488
296.9371279
291.7728369
298.1159143
314.9204905
312.9315981
311.3390151
303.239047
301.8517095
315.9984501
320.2937859
313.2507017
314.7589048
303.7712143
305.4930264
299.798861
304.5023902
296.9156881
293.139682
293.4766838
297.9025088
300.0636217
307.8703659
310.133451
297.4405949
295.5307292
304.6094352
298.3560556
292.2192247
291.9739719
287.253133
297.0936986
297.504376
301.7271719
295.4898896
304.1044979
301.8343829
303.0509398
303.4541963
294.6945456
301.6482
301.8817987
297.0580567
293.8358963
295.0742666
299.7710548
307.021236
317.8340849
321.2989223
312.5717816
305.7868133
293.1503595
287.1092964
293.9366919
299.3079408
299.7113626
306.796044
300.3142702
293.2576733
290.6788722
301.3643806
316.5652571
303.4027554
299.2421443
302.5181877
299.7360149
302.4037491
300.8669371
305.1742477
300.2995023
314.4379952
309.1863499
309.1099691
304.0264893
302.1734085
303.1157492
297.6028834
301.8664637
297.8082354
305.2751278
301.5489396
295.6430586
294.4305349
303.5170336
298.9117239
308.9100636
308.476828
297.9026647
298.3040959
296.2285663
300.9033845
308.4532674
302.1669038
298.0204693
294.6434205
306.6879352
310.1512511
301.3108553
301.4292056
304.1132813
294.5586865
295.010406
305.6836678
302.2438547
302.2670051
297.2203887
293.0037941
308.5804622
296.7911783
294.539579
307.2525489
309.7823033
311.3753157
306.428993
313.1432135
308.3858394
311.9345295
306.933507
311.3180965
310.1949253
306.9768403
303.6948503
313.2512313
308.9056767
299.4294371
306.1189384
310.9649185
295.0312359
316.352434
307.8554163
310.3868139
310.1989658
313.6325932
315.5337496
315.7213488
311.9346746
311.5862228
308.3216977
301.4697614
291.9261767
284.2575886
295.7075941
284.982604
284.9266156
288.3138422
305.7604976
302.9302209
310.5944212
315.5648387
315.764073
319.7453142
313.8540839
307.4249014
318.6611772
306.0253513
304.730889
295.7752105
294.0782293
293.8071695
303.9201938
311.6846169
303.0942581
299.0252715
296.5301033
291.7018374
297.8460251
307.4076201
306.1947826
309.5287341
302.0460581
305.157334
297.8084129
296.7115437
296.4004914
300.9128587
299.4645308
290.2054428
294.6072493
299.9350666
302.7764643
301.5634801
303.8102502
312.5431152
303.044467
302.0150324
307.2133629
308.2697261
317.1750466
308.2427665
300.9112397
299.717111
301.440671
302.8315532
294.368841
299.780623
290.1362867
299.8018168
313.519403
297.9953231
302.659967
295.0764834
291.291822
294.6008044
297.8515439
306.8362624
313.8042138
321.8881822
294.3966011
297.5853335
298.3131116
300.9160768
298.100301
309.1536717
313.2867418
304.4882319
300.2045542
304.7029469
301.9443798
304.4134911
298.5194694
308.5946212
309.7720754
315.7714454
313.0668058
304.8850466
299.1183704
302.7958568
292.0603921
294.9047357
297.9397985
297.6884388
295.0350626
298.1260437
296.5811395
298.0585201
302.2103376
302.9360827
302.2751555
300.3839312
295.7760244
294.6287261
298.8898494
305.9962384
310.3166234
293.4862522
287.991649
296.0062341
309.5789221
299.0797114
290.916648
288.5218766
292.3177938
294.1841602
292.5175901
293.8855702
301.6154996
304.7823864
300.7962662
304.3773949
301.1477315
296.9090319
283.2931501
286.7877288
301.8389713
308.484781
312.6619434
317.8269349
285.3805315
297.7112675
296.8786949
289.7866511
282.4042021
281.5378645
290.7226852
297.0805788
296.8575231
313.864164
320.1592835
313.4853875
300.3757864
295.7764968
307.1317509
296.8725391
290.5977327
288.1004425
286.3967675
288.018053
296.6696626
287.0448976
297.6220032
300.5184876
291.777088
297.413358
296.4815958
294.4264347
294.488464
296.7040599
285.1467703
291.6349864
288.507345
294.1483894
291.920369
304.4048443
305.8234818
293.5490998
291.6783062
286.6397423
307.7438023
300.4124098
312.0425621
302.3205417
304.9929679
302.8657645
297.2395119
294.5975121
301.2135112
300.2128591
302.5559234
294.8238789
294.7784118
297.7249912
298.6702654
293.259523
294.2015638
299.6856055
308.0998846
308.4175247
307.402508
309.738718
309.4206455
311.5478689
308.6882602
294.3392324
287.1710351
292.9317891
294.8433334
298.5330078
302.6316378
300.0707784
308.0718119
305.2709042
306.3206448
300.3536176
298.6648665
310.6158836
306.8211261
301.8619478
296.2777944
300.0065654
301.8969519
302.5953671
299.6705777
299.3091423
294.1398332
297.2837903
295.234197
299.6304286
287.2113593
293.3559874
301.7901498
298.3465974
287.454412
296.672517
300.9114672
294.295638
297.2836613
305.9327948
310.9133669
300.9368388
297.5061819
293.8243223
297.9798286
296.1435579
296.4140195
294.1376691
291.8666351
288.940877
293.0920331
293.9172382
305.7735447
304.813926
301.8790904
298.4095045
300.8961382
303.3548694
309.9727279
314.861837
301.3883543
307.9725017
316.9573246
313.9553917
320.6724642
319.0311396
307.3771371
296.7576293
292.2601781
302.7176515
302.754937
311.5613026
308.6278925
302.0291856
299.263783
306.4826384
311.8985222
313.1338405
304.6775761
301.7918683
315.3306935
312.0506265
307.4361566
303.7364967
310.645704
308.2479508
313.6711918
310.2923625
296.5726137
302.1111258
303.1766092
304.1970755
302.5549874
294.9420024
302.9082607
299.9954339
308.8223485
312.4668628
312.600146
315.4598552
326.5860347
328.8387519
329.1509496
313.9689983
311.2655393
301.8379965
301.8596135
292.4600644
304.0284548
306.5463296
296.3967832
297.3574046
302.4471816
305.9978848
311.0927247
309.6160838
316.3805139
319.1294649
320.2312411
321.3258262
305.4368554
298.1585055
299.1989922
301.439862
301.2459368
294.2901505
290.1389741
294.0272694
305.0966677
304.5160848
310.927282
301.9799345
301.8162452
296.9380228
300.964412
303.4779632
293.0479824
295.2269161
294.6505525
293.4703252
295.9921547
297.0666869
300.5067647
317.0554783
313.6388587
298.1350097
292.4433281
293.1789887
301.320196
304.089962
300.922614
313.2326353
302.2709147
297.3006362
291.1036147
286.759493
293.5827487
298.1814573
296.7018919
303.1330811
299.1095343
304.8829562
298.7757532
290.7759237
295.9693607
298.7607402
302.5138099
301.0643545
298.1460678
310.9332324
306.7695839
303.1515043
299.9229134
300.7729695
306.4976197
302.0528787
296.7209467
293.8766584
289.8503465
285.0515772
302.465076
309.6848525
308.3746137
308.9006092
305.6977558
311.94638
299.2518782
308.2167598
301.7423791
297.523549
306.1802887
304.7334967
312.8688095
317.7306411
315.3528296
309.3788492
296.8293565
302.3000857
309.6933115
300.3979816
309.3378515
303.5823288
314.8979656
324.486355
319.1950785
299.4992098
306.2632354
312.6638105
316.4323109
321.7792615
303.0986143
294.7653622
299.3197833
306.4687049
311.8787072
310.6349084
312.747521
305.7110167
304.6367896
300.6266494
312.0497636
305.5189883
307.4142775
306.4512548
306.2171923
309.3112126
311.9976158
306.0715866
302.0540943
319.852291
309.8823144
310.2704735
308.1134239
307.2829088
304.3271986
299.8984228
305.3716495
305.4667117
309.5819166
311.6569259
296.4017478
301.3494236
307.7810998
311.1346585
306.0166578
306.0116655
303.7865921
311.1489824
308.3364969
307.3934068
306.7929505
304.0571083
310.8263782
304.1510115
296.4009942
300.7089203
307.4832248
297.9811403
294.5970643
296.6404162
295.0203274
295.2759379
291.3797557
308.4789219
317.2298399
302.3990983
298.1518971
302.6035545
310.0785216
303.4033114
292.7156125
294.57844
297.0368339
295.2334387
296.4655313
296.4481532
292.2995191
283.5291129
294.873185
294.1396916
293.7920923
302.6902722
301.5954418
300.2329716
308.9854894
311.9205697
314.638636
307.969886
304.1309905
308.7343168
305.2420791
294.3589342
304.7552064
306.5815285
306.6272065
300.9511318
298.0811285
304.1338329
296.2335212
287.6771981
309.8418432
300.1696712
296.6019227
296.0085571
298.6864129
305.9107873
303.1610275
302.0514717
295.0489255
295.7229395
300.5585218
303.0324402
300.6004223
297.7353612
290.7150182
295.1435532
296.2236046
297.8777089
308.8295149
312.6062764
301.1151176
308.1749627
306.9219177
302.1823436
297.2470097
305.6250907
316.6936617
319.9040749
313.0076871
308.0389457
309.6810259
306.3146274
307.1651491
314.422775
323.0510421
311.4138385
307.3595531
306.64689
308.0770814
299.4982676
309.058787
299.7937118
300.6828326
297.4726643
293.1263132
308.7142649
317.4646379
308.2538864
305.0400337
302.6861671
305.9809533
306.0769407
312.1564892
310.7906151
310.0094032
308.5971168
311.4935617
310.1275153
308.349549
303.8848301
298.8847257
306.2299382
305.4054017
302.6925216
299.4323559
300.9794296
297.7260455
287.7511746
288.4670704
298.3573457
300.6450084
300.6357187
306.9680315
311.9325446
295.9899707
284.608013
286.536215
303.1894023
296.105451
296.8093582
303.2351061
294.8526995
289.7980545
293.1330199
299.787937
288.4428583
290.938269
300.7429579
308.7611658
313.3499911
305.7909287
299.8088923
295.2968586
299.3173035
304.5743889
301.4271695
299.4625356
291.5576354
292.2268457
292.9204593
299.3428474
306.9649422
301.0678209
294.9259464
291.6880493
303.5714163
308.0337326
316.2884298
310.0209031
303.1492445
289.8729503
296.7745507
288.4910962
293.6278356
299.684199
299.6355674
296.8787572
306.3839208
312.6608695
309.4373824
296.9523241
287.8596248
289.2459705
299.1055548
295.3072641
293.5094754
287.113422
296.283684
292.2020414
292.4401386
294.6902651
295.8774788
301.8858647
311.5868982
300.9828149
300.0660137
293.636654
292.6605467
300.4067226
293.1812783
287.4206296
283.7315717
292.7314087
289.182639
291.3896032
295.2304935
293.3705484
299.9258634
300.7218842
296.929213
299.7834058
306.6791474
303.5331235
298.1128081
293.3259742
294.462735
293.9136265
284.8397732
280.8658038
285.0486954
283.3521957
289.3046582
293.3946999
289.3371706
289.894981
302.3187494
302.1241678
296.6917563
301.080754
292.2040137
289.4350921
292.0829175
296.8841627
287.6819705
295.9096232
295.5896947
291.7935554
288.5772355
284.5739559
290.2120909
294.369326
289.9734503
289.279582
279.234439
281.5145646
295.8723945
294.5827435
298.4688266
295.9981267
289.4096184
286.5017433
288.5956996
282.1799711
287.3650644
293.7636715
301.1230276
303.0221739
306.6419804
304.4412433
301.5081077
300.3192415
295.3024595
297.2211201
300.301591
307.5534118
314.208756
319.4582438
307.0799511
305.4006132
309.8249884
311.0415903
311.9743724
314.6914257
315.9387651
300.9109998
310.969216
307.9781375
307.6133972
297.0753411
307.1483973
298.4374783
300.7578629
309.7348315
305.4233285
305.5530792
310.9322507
314.44827
302.9882887
291.3383911
291.2213232
295.6042516
303.6846018
298.5405363
301.6894034
299.7157173
300.6588559
307.5149973
300.1151803
299.2870955
293.4968806
283.9801356
284.3788052
285.6341847
286.2860809
285.4880997
286.2384235
293.2663463
298.0831697
301.8077319
298.7117325
306.442763
304.3154821
303.1366381
295.025335
299.7885588
301.9094472
297.7807515
308.9688264
297.5987255
301.3448324
299.9654975
297.1282071
302.8836618
298.9675867
300.605782
302.045743
303.8810631
300.621757
291.9981787
299.5721421
303.550651
303.1506464
299.3143561
313.1046393
302.4867175
297.9648647
293.5522621
298.0679965
301.4684119
298.9746837
314.4159953
300.3053652
294.2489816
293.2276058
300.2323969
308.1260867
309.7275126
300.2803545
304.4986932
306.7001269
311.5970635
309.3615004
307.1760646
297.3314945
293.8082994
282.0607896
281.7287612
288.3096323
294.559857
297.0398989
291.0695197
300.0394132
308.5746326
307.5075909
304.3642449
311.4721585
310.8681593
305.6500892
301.6122557
298.374815
294.3179783
301.057876
303.1916308
307.6785305
308.1412301
309.2770668
313.5513267
304.6228474
302.2887367
304.7680106
299.3415393
307.9131534
313.940806
317.7550505
314.8668707
311.781403
311.2823575
312.9655604
315.5698631
312.2390422
316.0364188
315.9157078
316.1816109
310.6791712
312.7599229
315.1680273
305.808492
307.5726426
311.9349975
308.0858453
304.5094554
304.0084995
301.6862163
300.1248361
301.7034603
292.5232181
287.7497987
292.6584414
305.9470943
309.3274815
299.7583665
300.7720209
294.0125679
295.1116989
303.8477154
307.077245
313.9898439
308.494985
298.6087557
299.0526673
301.4883352
300.1460843
302.7086394
315.1168051
320.1048486
329.8417829
328.9400905
322.4887943
313.1827268
309.640605
312.4635987
309.0456658
295.9562634
293.4455435
297.9768194
309.262242
306.4860457
308.8034615
309.126673
303.6113657
315.6036199
312.0261986
309.0060331
308.0253848
305.2604809
298.3823892
294.7576147
302.1327598
310.3011067
312.4774717
317.3610229
317.1483486
315.7558475
309.9737052
300.7408017
304.3374446
308.3066446
298.5302243
305.3855754
313.4148743
308.7175819
307.5548776
305.3039498
306.3440308
304.2370682
293.40996
305.2399717
313.0538669
314.4109254
305.5553718
300.8119995
303.6368259
304.4895967
298.2736312
298.9047403
314.4400749
313.0108275
313.2666237
315.8599916
304.2720038
279.3292987
285.9918881
286.1573477
284.0166358
302.914302
301.9742727
302.1043902
291.7392748
289.9116264
288.9007273
291.0056733
296.1002636
291.0183116
297.4472642
288.3567666
283.8199302
299.9868406
293.4534142
295.7504485
287.2942867
297.7201386
297.9262704
306.9242782
310.8617848
298.9694786
298.2844301
291.4004887
288.7622602
290.8329473
302.2755046
308.0792154
296.9340399
313.0252847
306.8770027
301.2365618
298.4890426
293.9429371
298.8076245
304.2526036
301.1215213
291.469899
285.6546297
284.2488757
280.0961111
293.9433836
297.489769
323.1997291
318.1978622
314.4069095
307.4308413
309.4541121
298.89753
297.0077795
297.7086238
305.1960837
303.7144437
308.2626935
300.0890672
297.8641107
297.9606112
298.6747497
299.7262133
299.9943913
296.3029885
302.8470697
297.9806966
297.807222
307.8583014
301.7218647
304.223112
305.3267446
307.829559
298.2046903
298.092128
297.3863244
293.0378152
290.2207458
296.6182754
301.9143687
302.2214084
308.20808
301.7470296
306.4053615
313.6422925
311.4013685
300.9725501
300.8167316
301.7981201
312.4826488
304.9135979
300.7088854
293.9642809
296.9001445
290.5863484
290.1322282
290.1284347
292.253206
297.1319807
300.5943605
299.3228218
292.1641907
301.390732
310.2869594
313.7731662
306.5418954
309.7744815
303.0260632
302.2927288
301.5407858
305.9982939
313.6072845
312.8536183
315.4993893
321.0324069
312.004463
317.0922364
313.3030664
307.9958826
306.9173221
300.3918937
313.9570872
295.4276725
292.0884564
298.7200602
305.5608422
298.3445063
296.6153859
300.9104524
295.6675191
289.0935468
281.8570896
286.4056565
287.6592306
295.2618074
291.8632365
292.4626552
295.7219299
305.5019838
309.3132266
309.8238293
302.5738832
300.8308684
303.5278549
308.8903692
300.308983
301.6558915
301.3727345
305.982629
298.2679018
295.3785597
295.9022853
290.8484336
292.2287307
292.2706972
299.3243347
307.5957387
310.8650267
305.3965658
304.2804196
299.7107302
321.8233933
311.7733757
293.6805498
299.5610335
308.738124
307.8745899
298.6971517
304.0264574
312.148436
306.9993864
296.236699
298.7313887
294.080626
290.9886614
299.3910244
306.1911776
319.3634524
317.0866639
316.1761102
316.6797168
287.2350487
300.782911
306.7947937
312.3544687
307.8045035
305.3153005
305.7471341
305.1672227
292.2216593
287.9061767
296.7827572
302.4097892
309.9644795
301.8391026
305.6066428
306.4205124
288.990007
286.5396958
289.2109737
286.8411474
309.7695469
315.3316424
309.5028791
299.2983421
307.3336551
298.0411688
291.2009017
287.593953
288.7164091
288.7009703
293.2439296
295.3439035
289.7300521
291.7879991
293.8903034
295.9586872
305.5043319
299.6639802
300.6556424
303.6049647
302.013588
299.4997738
297.867726
299.4834099
294.8286556
301.0506296
306.1996632
304.7870028
297.624192
289.7099508
290.2672204
292.6872151
293.1610266
298.3935949
296.744291
302.0446802
299.3907993
303.8863645
300.9896222
295.1715663
288.9966
294.4277515
293.4627129
291.3943424
298.978401
287.6976994
296.582362
302.4777712
302.5034
302.9865118
302.644291
295.7934624
297.6787822
291.3894521
291.6115815
295.1403213
292.9406606
296.325806
295.0137824
299.0937574
303.6727022
304.0099942
309.7938002
312.5948678
308.7961426
312.2237863
307.047474
307.6102232
309.2694289
308.7001904
310.540627
306.7585628
306.3680582
309.8328599
309.8058413
303.1954316
305.1224756
306.7761876
318.7341038
310.0511828
301.5764943
304.4211086
299.3040927
294.666117
295.980629
298.8977983
301.7339569
306.0040438
298.0813748
312.7833474
309.0218181
304.0566919
304.1488835
311.2263374
310.9921032
315.6080194
305.9916174
316.5221018
311.6586993
303.809793
299.4813244
289.0989609
303.6912261
304.1948021
305.3958881
294.9641201
292.9775536
296.3131244
292.4595991
290.6209704
287.0630594
293.8047344
302.3255024
311.4197893
304.5120953
310.8370541
305.4088615
296.7947813
296.3534108
306.1681469
304.5324152
303.1974054
295.4501513
299.7521712
293.2230631
297.0837745
298.3784486
298.992163
297.3457388
296.0375312
292.2471641
297.3989646
296.5423068
301.8327601
320.8758612
313.3698063
317.6795587
314.4937734
309.1365383
303.1793836
288.2406704
285.4848792
293.1387682
282.4213776
290.0840495
294.4511038
302.4643136
302.8886234
301.6002097
294.8131659
292.0820027
294.2415834
279.8373982
286.076982
294.2782936
287.3439824
281.777119
285.3605872
289.823346
277.4172808
311.4517745
308.9515257
310.7880965
303.2533862
295.6793754
299.1893088
297.6601957
298.0776362
297.8261509
287.5342556
289.8519668
295.4473535
299.4722572
296.8371815
287.6291417
285.3036092
283.2198683
288.0057934
296.0883231
303.3803214
304.099875
317.4558061
316.5317875
322.464388
322.5292166
311.6047237
293.5424496
289.3208929
292.929489
299.7050848
292.4818808
284.2151015
290.0491815
291.7671178
296.952771
302.767221
306.7295811
303.8420961
292.5407802
300.943352
301.78726
296.6882727
300.9407092
299.2924016
288.9251194
291.6816212
295.4444202
296.5849255
291.632246
293.710169
292.3051442
305.9384255
301.294946
283.4025583
283.9455522
285.3671712
291.0131013
289.7749652
289.5161074
292.0225955
307.2395212
313.3673884
303.7446376
308.9141309
308.4639894
298.5290008
299.1609382
303.456341
310.599963
308.7726642
315.579616
303.1169919
303.7649412
315.3588306
311.5800928
301.5279343
298.224084
291.1000779
288.1820763
292.5648435
300.6810587
307.940393
308.4865807
306.3854851
301.2616026
301.6515109
297.3005912
292.5458086
286.5235956
292.7962162
293.592589
306.9551467
310.3488638
310.1314026
302.4305327
308.9870766
304.8661719
302.4053191
305.1539099
308.0871077
300.5706649
294.7248386
296.1218776
292.8963878
293.4817396
285.8206366
298.4210901
293.4341882
304.0937155
305.0130522
305.9067708
301.8898117
306.2693652
303.6616401
304.3350761
304.6724188
294.4363607
283.7321067
279.6437362
289.0575301
275.8780776
292.1105594
298.8653366
300.0045344
293.6935121
292.7056152
299.3462851
301.1467873
301.0558678
317.3729259
315.5856209
318.2438259
310.44771
314.7604913
304.580401
296.9993753
313.6284049
300.9975705
297.9843163
288.0131672
297.9814087
301.322265
295.7156921
297.2643554
293.931825
298.1971301
302.2768659
288.7728246
287.3764266
292.6215704
291.950771
293.0795745
296.5697069
298.8954702
295.9281861
287.6185373
287.6849743
291.8811915
300.8215363
300.3950295
297.161217
289.1754429
284.4543403
289.1410885
291.6879309
289.3463773
297.5720857
306.8517052
307.9101436
310.905846
315.893597
305.5839276
301.3000918
304.487321
304.6012946
315.625724
309.778436
305.157344
298.5373587
296.4087452
307.4424881
304.5064185
300.5996205
296.4778182
290.7471712
295.6345013
298.8042907
301.3925923
294.6777317
297.9922348
304.916407
306.0735515
309.8019032
317.4653935
313.0100932
308.929261
301.7744497
290.0754074
300.3363842
307.3215044
298.8494474
306.43403
307.640701
302.6081095
308.6805343
303.2283437
309.6218442
305.6233467
302.3890384
301.4109584
299.4895364
297.2492366
297.4962094
291.822943
294.5772163
287.7354203
282.4791265
290.455481
292.3326041
293.2479331
307.6181414
308.8276799
302.4678965
298.1490769
292.6171102
283.4455223
287.4907861
295.1840443
292.3895896
292.2581175
295.1326521
297.350311
296.373101
291.9988316
291.4757343
306.7481887
302.2560688
302.06995
303.9644203
300.7700662
308.6668696
310.5651968
311.8358178
309.0129214
306.4428756
303.0682677
300.5319067
292.4693685
305.277126
295.355882
305.9083774
302.4113741
295.7021826
297.4964711
303.9991008
300.6806493
294.2547029
291.2288608
291.4127579
299.6125561
301.4476262
296.9216213
280.957807
276.6338563
286.9937154
290.7204654
295.6331123
303.8723607
304.1779094
299.3221433
300.6338478
308.8974943
309.4080028
296.7266789
291.9460056
289.449105
294.5061986
306.8257978
311.8694185
312.0790307
302.0657136
299.1083373
298.1143743
313.6514223
312.1683253
305.51577
288.3793341
285.3036073
285.8653165
297.2216209
297.71797
295.5582032
304.5089554
303.0275038
306.9727459
309.8174256
302.3283286
297.5027752
296.591774
292.9899838
287.5514821
284.8933849
290.0427407
284.5557104
285.4320717
288.8067916
296.566116
288.2146743
284.508756
294.5973065
308.8382087
305.8402298