/*--------------------------------*- C++ -*----------------------------------*\
| =========                 |                                                 |
| \\      /  F ield         | OpenFOAM: The Open Source CFD Toolbox           |
|  \\    /   O peration     | Version:  2.4.0-MNF                             |
|   \\  /    A nd           | Web:      www.OpenFOAM.org                      |
|    \\/     M anipulation  |                                                 |
\*---------------------------------------------------------------------------*/
FoamFile
{
    version     2.0;
    format      ascii;
    class       volScalarField;
    location    "0.0008";
    object      overallT_N2;
}
// * * * * * * * * * * * * * * * * * * * * * * * * * * * * * * * * * * * * * //

dimensions      [0 0 0 1 0 0 0];

internalField   nonuniform List<scalar> 
5120
(
295.6347428
307.8699657
306.6761429
295.4004671
302.4210148
309.0012356
306.8506173
296.4062587
303.1775446
307.8438987
314.477604
309.9216272
305.7384976
290.4384115
285.9564699
288.3892645
282.3153331
293.8006875
295.6389107
291.6874066
295.001999
300.7559136
304.682248
307.9632862
305.6934843
304.9653237
304.0009705
314.811053
317.2028123
312.0320116
305.2776795
304.0695242
302.9278022
305.7346075
303.4586095
306.9064252
288.6938631
284.9069939
292.0392148
292.9549796
292.4512346
293.6745285
288.6992949
282.2448683
284.9337866
292.7603869
308.4961042
300.1842057
298.9214743
296.9901006
293.6995266
291.0551293
295.4314247
297.7615912
306.822027
302.5204931
300.9790002
303.6690639
304.0012927
295.0598554
306.1298414
299.8974865
295.4367994
302.6377704
300.5896478
307.3580651
306.4604998
306.6855197
305.4466028
306.7474232
312.1116067
310.0553545
298.8041668
296.0506395
304.0914657
303.0518466
312.0796165
312.247163
307.4244941
300.1900516
305.5786322
308.5698782
303.3441969
292.9127544
295.5998262
298.6763405
309.5777886
305.3112806
296.9295414
286.2022632
275.2837263
284.8751177
290.163044
295.0772127
299.9618166
303.6766205
318.0815084
310.2178935
316.2588454
318.1246141
297.8879637
286.85107
313.4011002
308.5692557
304.8549416
298.3398416
304.3567985
313.4714081
316.2470623
310.3540002
311.8620584
311.2248464
307.6556402
309.7030539
320.5087432
330.2026519
316.6896416
324.2394193
309.4457734
301.4025163
313.5723962
311.3846462
297.6205518
299.6634652
305.5885416
309.6595828
302.7047356
308.4234478
302.9969264
301.304636
289.9423717
287.0113531
291.0325106
294.6748467
304.0608051
313.6238033
316.3528728
310.3380062
304.1171817
309.5499778
284.4746337
275.4079636
287.5414256
285.1457323
287.1346195
286.0394646
288.4249331
285.0052909
274.1950618
282.6859608
285.892758
281.0270145
283.7403752
289.8264664
286.3230669
287.1176705
288.8783989
287.7949616
299.259163
293.346563
289.2998689
296.91368
296.2590191
283.7345796
291.3559924
286.5553109
286.6923025
298.803352
302.2266083
295.4695364
295.1028514
302.2989131
292.4796865
291.9309844
297.2063647
280.7229667
279.6052644
285.3818884
283.4156184
290.1860714
288.8946804
286.5794508
289.4696728
280.5310056
284.7405388
298.4235445
300.9886419
293.2722469
297.9590952
297.4191654
298.2839535
294.6794253
303.373684
300.5597011
298.4485415
291.7439142
292.0453007
291.2114978
289.1207228
288.8410833
309.3554084
311.7367046
309.8647567
306.3983172
303.5088801
295.9757166
294.4910996
301.8397209
297.6577337
294.7142713
304.8221251
304.7724656
289.1424607
282.7695666
295.2698506
309.6486764
308.0511113
307.1500365
307.4271413
303.7143789
299.462416
302.1105499
300.6704034
300.7154612
294.5642607
295.7119976
289.4351932
290.4189497
292.093947
294.1018421
282.8761334
284.0378994
295.2587652
309.0731494
308.0969424
313.9251357
311.0972118
297.1861343
305.6251534
300.4715287
301.9533708
295.2993791
299.8742149
307.4198477
302.4026274
298.9190006
308.737434
303.5644266
304.4818475
303.8382951
310.4423528
319.8602604
308.6757385
309.9113124
307.0195423
311.6659417
308.3925251
316.9635331
308.6388272
301.04647
309.0790281
310.8856107
307.6046661
310.1988692
306.8780381
312.9206469
305.4374104
288.9745939
293.7040499
283.3140195
300.3097821
303.5590464
304.1656659
300.2863233
288.9301364
299.7836273
298.8446986
304.2598017
296.9637105
308.8285157
303.6235659
302.9789528
298.4328
292.1939438
294.6160407
280.4920469
299.3326516
302.2470308
298.0918461
303.8950419
303.4084094
302.0342291
302.9108253
308.1883295
315.0123691
318.6761512
315.8204452
308.1913619
304.7375776
295.1364896
273.5517654
276.7122535
289.2758512
304.2655188
291.7244942
297.0870014
293.6690694
303.6637748
312.1056727
300.239384
298.3824973
303.4954066
315.4280454
321.4753085
309.0612748
308.9142701
300.3517976
297.16972
290.3796787
288.4671301
281.6250381
278.497465
280.9327956
285.3173977
296.166495
290.1710243
298.0972167
300.6056896
301.7289039
305.4223054
312.0619904
300.5660808
296.649039
293.7625218
299.4911855
287.8406108
288.3908178
283.797504
288.9743321
279.1767789
309.4315162
307.1783464
319.0114517
318.6462048
310.5298242
312.8693676
307.3279346
302.5758764
296.6218229
294.0932176
293.2085027
293.4888598
288.4529735
300.3486019
298.1572545
294.043952
305.2195067
311.3088353
314.0032326
320.1415957
293.4889797
295.2054354
290.6852201
297.9945711
300.9887923
295.1130144
293.1723178
288.9925827
280.7049127
282.0411542
282.4921729
288.8151798
291.7975271
296.3426597
300.1514701
315.3754294
320.0447463
312.3395532
311.7589233
295.4822513
304.2154878
307.1965278
307.788113
306.5506137
296.540809
299.4286734
299.2027238
307.9881792
318.6916109
317.0872279
309.9680448
305.4250209
304.4889773
308.7063269
298.0604477
296.2485237
283.5256528
288.5842304
290.3597462
292.8896617
303.5716916
292.3174332
297.7729126
303.2986056
306.606447
311.8007919
303.6798662
304.5315341
305.208844
310.1729681
308.6150139
311.4011694
307.6034836
293.770955
299.9936709
298.1973592
290.966559
289.234363
300.6379166
305.3704399
307.7574343
315.2411577
313.9550853
314.9741778
307.0151227
307.4599599
296.5446315
290.805615
295.9191657
294.2131544
298.2971966
302.1727511
297.8890143
304.8904186
308.6518428
300.9016302
291.0013139
296.5755132
299.6440077
304.1584756
295.9952165
304.972213
306.8965542
307.6514917
295.0262312
304.4903777
293.9410552
284.7703567
282.3345655
289.9813898
301.317914
303.4215355
317.2970029
319.2363431
318.8440946
306.2700701
314.3276151
308.7869575
291.7845287
290.3236681
296.2175322
295.2654385
297.8635201
294.9865179
295.747253
293.9812126
299.780573
299.8856989
293.2678538
294.9389165
290.680213
290.284814
296.8522243
289.0274312
297.3789733
305.4753874
296.9777057
288.2230648
295.9037812
298.7556822
308.765864
302.914577
297.8873818
289.6072876
292.7661951
295.4740199
298.5552811
290.9653142
285.9252214
284.0721885
292.3696475
300.8421385
303.5178793
305.9573089
295.4710271
293.3386453
299.4771268
304.2051056
306.5056348
308.5577446
297.1427246
291.4562368
297.6457195
309.0764667
306.4900091
306.7128958
312.2889039
317.9411243
313.8691644
299.3187867
301.5121176
307.5277944
289.2059211
302.7674634
312.3608779
306.4753926
298.4280252
301.4101988
305.6428002
296.6342131
299.1650085
298.1777745
308.9953145
295.8009655
295.9752621
288.5409888
300.1602085
307.6281068
304.7269262
302.5014339
291.7176629
281.4559596
284.0976724
293.9204228
280.7447303
283.0310479
295.2732919
291.9240726
295.3021139
298.0825416
293.5926379
290.7348859
283.1749814
300.1347628
301.6666782
298.5476415
300.1150396
299.2115015
291.2546814
299.1392081
299.5381875
306.8119227
309.4721871
308.0025996
314.6200666
308.900396
303.7297711
297.907464
303.4992311
302.6094846
300.4539674
304.9547975
298.6713791
296.4729808
296.7667412
304.2804103
288.4053429
281.4825018
292.3167039
308.1671895
310.3705631
308.8334235
309.776303
309.2256977
297.698016
298.2996236
308.5590559
301.3899013
292.8614871
293.1807367
304.8974756
298.5869618
316.0057075
311.0850362
310.7042487
297.1020404
301.7961909
305.7848962
303.7677051
307.6221979
299.1133352
308.7233972
306.6751777
316.0538937
311.3155968
303.8002736
305.4747853
318.8581147
323.5620397
309.0580431
306.6165855
298.9207142
296.2717478
305.9138468
307.9416939
317.4793141
309.996281
293.1811227
290.8687674
289.8117878
290.8933914
301.4613517
296.4767912
299.5022011
295.2487808
309.5681798
304.9308661
300.1871526
297.5259062
301.6822113
297.1052023
303.5787374
293.6804344
300.9044543
291.693324
285.0725899
287.8278989
291.642456
297.0892519
294.7056707
299.4907282
301.2609034
298.6806262
287.4700839
282.9388715
288.7758721
291.8554316
292.1681314
286.6868687
295.7833908
298.8273257
297.7083333
301.3321139
293.1655162
300.091206
308.7119593
305.1843143
310.9501841
299.899259
293.9007213
285.4989326
301.4424897
301.2600379
290.608993
294.1078331
288.40933
288.2011636
295.1168898
294.7301657
297.2401192
305.9979423
306.4487054
309.2588466
305.6419972
295.9790817
295.9093515
292.739636
296.1001972
286.0116607
287.383818
285.8512404
286.4542367
281.2680913
275.735234
283.505036
288.5095973
283.6380376
290.0202196
281.5622744
287.9805529
295.9866306
307.264674
297.8972564
298.1826917
289.4065648
289.1487154
284.585451
281.5099511
275.356927
277.4005535
278.5256412
284.7636565
284.9839734
298.5305426
312.1950159
310.3117329
308.0115143
303.1887933
310.8477207
302.5553289
292.1554844
281.1733422
276.8957357
281.7591641
290.7964653
296.4267708
287.4764111
284.1669831
285.4218162
287.9504786
292.4126364
288.2016091
287.8174564
285.4363612
279.5243728
284.0613306
288.5278694
289.9273334
295.2395789
299.6950229
305.6008653
302.0776523
288.3246751
291.47081
290.4942208
284.2746889
300.1721002
304.6815246
302.6847266
293.2310615
296.2117187
299.9167762
302.4342464
297.60285
297.751256
293.1300706
302.742673
317.763406
313.2525665
304.1992577
306.4210558
300.006776
313.2917111
313.5936098
305.1511657
310.8712491
298.8917599
299.7832844
298.5208569
304.2094797
294.6207378
293.3940853
296.6438538
299.471331
298.4046475
308.4724972
318.549712
302.0437108
302.2680891
312.4730479
294.2039693
288.4350964
292.6384483
289.1847785
298.3483482
293.7912851
299.6357736
299.8717343
305.1602242
298.4653282
303.3475634
303.6367184
292.0448064
300.4012312
302.9128442
293.1637751
293.7516196
294.8162539
303.8806739
303.7486471
320.8367529
323.6507485
314.3641991
304.5597256
286.5396033
277.7714644
284.8452786
292.915533
294.8455954
303.326996
298.1347492
289.5553327
287.7621059
293.4154212
305.9693558
294.9460345
293.9587982
301.6720105
297.9815289
299.3865309
297.4512391
295.7464163
291.4855085
311.0123857
310.2142116
313.5218729
311.1822507
308.6362989
308.5714747
301.5681254
312.6385676
307.9677273
311.2078019
307.1197493
295.0422052
295.7048533
299.5060129
296.9019834
305.5703322
306.6759672
301.2579694
304.0799526
298.0863541
298.7539562
306.8103965
300.5569017
294.5258106
295.2861244
305.4756915
308.2959307
301.8440803
302.4717998
305.0677982
298.7698111
297.7203444
308.2071889
303.5758999
305.7080041
305.6993147
295.2984057
307.3287686
293.9823457
296.4873848
309.3939201
307.7807046
310.3437614
303.2246147
307.1902081
308.0226266
313.6336923
310.0505995
315.5519411
315.2572945
312.615379
305.2795551
313.7457266
308.8165315
295.518772
298.9083059
309.271711
293.9197733
314.8737772
301.5017276
304.8209312
309.1274056
311.6337042
318.9346382
317.3358765
310.0977929
307.2781674
304.3031814
298.1823083
288.2705833
278.4616754
295.8493543
284.0036063
282.6375193
280.3078274
301.9241205
297.4850252
307.8067512
310.6702187
303.0734316
313.2245399
308.3845365
306.2579099
318.7042911
302.4111624
297.7145021
289.2566915
289.2761625
294.0633782
302.8723486
313.3648582
301.8766808
293.8215377
288.8321049
289.7737396
298.6079553
308.6660723
304.3376053
309.2865619
303.4171857
302.7252013
303.7004012
299.6933861
301.8913543
309.3616556
306.3808552
293.9942403
301.6372074
306.3707758
305.014508
300.3907982
306.2857396
321.6985182
308.5469139
307.1846433
308.8698469
307.5355949
315.5707023
313.5574362
305.6977932
301.8872158
296.0028347
305.3739828
298.5093752
298.2017289
291.1377398
308.4261019
323.3802438
302.5195569
303.2975486
292.417674
285.8966113
290.9241997
297.1441951
306.1953873
313.1784737
317.5258173
290.7229829
297.4624358
301.2859874
305.7451673
306.8899075
312.6349728
316.2119869
304.1195194
298.0447088
304.6750804
300.3609875
301.3074767
297.1801928
310.7667307
308.8681707
317.333834
313.9445883
310.4648698
304.6438376
305.0087537
286.8623725
293.4505589
292.2257365
294.8555528
288.0942564
291.5528517
290.4814498
291.7597086
295.9636406
297.5350501
292.6002991
290.4458629
289.3807407
286.4235292
287.3867409
294.7909749
302.7822908
289.4416707
286.0627899
289.5911688
308.855456
298.9008755
294.4075873
288.184014
290.9153599
296.2945475
293.970087
290.9697291
297.3078263
298.5910009
295.2793325
300.4744642
298.3906235
295.5272066
282.4159784
283.9222995
294.1328782
307.2179496
305.9474407
316.5307612
286.3842419
299.4169749
302.3174945
297.3882221
284.3403973
282.7006487
290.5533727
297.1844657
292.9911699
309.0302316
315.9030108
309.9555214
297.1897295
291.0996242
295.8029523
294.7390149
288.7176293
286.9808122
289.9024922
288.3601971
295.8573968
281.8224369
292.8919683
299.1910843
289.6096463
290.6684498
289.5309277
286.743557
291.3770929
297.205086
286.2586434
290.4771571
285.6549594
291.0285543
293.1315926
304.4539059
303.8205036
292.296395
289.8345751
285.6066288
304.1822193
295.8774923
314.526622
305.2893378
310.5961995
308.6673989
303.0450603
290.9208151
299.657361
294.860808
299.4170496
295.1279355
296.5318319
304.6510135
306.6150923
296.0266296
290.6390236
291.9687311
303.2233694
305.517659
303.3574563
310.6841309
308.3811817
306.3390082
305.6406923
290.2479212
283.4662906
293.1411665
295.5921246
296.2219768
301.2823281
301.6829363
309.8922691
306.6419486
307.3932504
304.6156659
305.0373418
318.9899968
311.1267252
299.8258975
299.9781591
303.664186
301.88019
299.3742977
290.0380262
294.5145227
292.7906728
290.0251131
288.7483372
293.7836886
282.7201334
291.0520192
303.5388707
297.1330917
285.001429
296.0561685
299.4066344
290.0485646
298.5811927
306.7409945
307.719097
302.1004615
294.8077084
293.3795763
299.4315403
298.517714
299.5859246
294.7280074
295.8623755
292.5396795
292.3284662
287.294535
290.2112534
293.0993933
298.9678915
296.2358349
298.9643221
297.0965664
300.9083556
309.8134947
295.1207859
301.852326
316.1411556
309.8012702
322.5639842
325.2378182
315.0144407
299.4373358
298.9263889
308.3652595
305.416647
310.6179402
307.4778618
299.3461936
295.9854777
300.8679726
310.3050734
312.5799571
300.8560655
297.0752987
325.5055071
319.5685508
317.1711554
308.841258
314.8374212
309.6002269
318.0629712
315.4791477
299.9071326
300.8291204
296.835058
291.4666149
292.4917805
285.9042205
298.1478076
295.7013435
305.5478431
313.1689915
315.9197311
322.4511084
324.8178561
330.0648459
331.7102105
314.2883823
315.3933162
304.3340569
303.2652333
288.2444333
294.6580312
296.8247593
287.6644527
289.1129034
296.0543724
306.6023066
313.8522951
316.5510816
328.1197876
325.5965644
326.9270414
320.973841
303.9076594
294.9235086
299.3548109
300.3249231
297.5580836
291.4277615
289.0657321
295.0708905
307.7153285
302.1943901
312.4591332
303.1059865
299.0231888
296.2061654
300.2442604
301.4163794
287.9845358
291.5461002
290.0277038
291.7958956
298.7311884
296.5012317
296.6047302
314.102416
313.6917234
296.8805583
287.0782278
290.7665392
301.3368475
308.3564546
305.721695
319.4808521
303.0813773
299.3088736
293.6766924
289.2222114
293.6140427
299.3087591
296.2194335
310.6712403
297.1613823
308.3180826
302.5777797
295.9027269
299.3587329
298.4595444
302.5664085
299.0968339
301.2343944
315.2242949
307.8743574
299.4697014
303.5502124
305.7670257
312.4336688
307.6589707
302.9207867
296.3853998
291.6407975
285.2250116
315.340501
317.1038039
313.05813
311.8163662
309.3720992
317.7126447
309.666294
319.4960001
309.0054224
299.1077134
310.8632624
309.8577308
320.3643485
326.2045915
328.9394512
317.172341
304.052571
307.4750828
313.2233042
310.7835059
315.1635654
307.1954122
318.1939884
330.4914607
324.3791345
299.8254674
309.4312633
319.3088661
326.3995726
333.2518394
304.9283398
291.0009734
296.8846961
301.3668025
303.944418
304.2721629
306.4962573
294.4349119
300.0240838
302.2765055
307.0863396
299.3477503
300.9876013
301.3735732
303.7490692
301.0138306
306.6249919
303.2676035
303.4290827
319.3766461
313.29183
310.3352684
313.1716454
309.5291441
301.4241332
296.1585407
296.2953908
295.5828099
305.5656054
304.5712157
297.6007402
301.0341871
304.0806659
310.2591435
309.5486013
308.834253
301.952384
307.8892662
302.9697551
305.2148235
307.550495
303.9434444
310.4533386
301.5165033
294.2780345
299.5345707
304.535376
292.4415002
292.457287
297.4844013
288.2692558
292.2589898
289.823799
305.1981354
316.0484315
296.8599741
300.2375586
301.5207914
313.8917165
299.7387663
289.9916907
291.9694809
290.8755349
297.9382335
299.0197486
295.4688684
294.8067624
290.5903215
300.8500122
294.2714178
294.599789
304.3849912
301.0810368
300.1811813
306.6041955
312.0893418
315.2796098
317.7746397
309.1542107
308.6443479
304.7238583
294.7705817
306.0098951
306.2097115
304.2358572
295.0571027
287.8004849
297.6096921
290.7404007
283.8140883
309.3801451
294.269047
288.6554196
292.7252528
292.3254331
303.0931382
297.6110129
293.4022252
282.7713701
285.2665798
285.6211465
286.1673524
286.4728597
289.3716696
279.2532818
286.4167381
290.5828411
294.5885573
314.0928283
314.8733531
301.7522955
306.3198297
306.8049806
294.5462023
287.3206831
302.0886082
318.8667416
317.9181358
310.0119439
309.5845055
309.1940272
298.7201577
306.1486415
312.7959961
324.0614778
310.5893266
304.4184122
298.9606424
298.3376488
297.6539542
315.6238466
305.1821275
299.470484
292.5705026
287.3427434
300.4296345
311.7451567
305.7584641
301.7200821
298.4200293
305.3014703
300.2799169
302.7269111
308.1004662
311.5756772
312.6402826
312.0161506
316.0505725
312.9833364
308.7203108
297.94704
301.1666384
300.5829155
297.5151268
296.9080527
302.1501795
302.2676461
294.8792893
293.9722841
300.4879267
302.0502554
297.4030587
306.8067978
312.8438316
297.9376256
285.7256417
289.1729594
307.0205696
297.8817081
295.6644758
302.9249422
294.387402
292.3768435
294.9440288
298.7087267
287.3927022
286.5987262
299.0916973
309.2744079
315.5381798
306.2448129
299.4615729
290.9730272
299.0761206
306.3080553
308.1011695
301.6690515
294.30369
292.962419
290.6535288
299.9077178
304.446068
293.2505013
291.0612734
292.679156
306.4345502
311.0507559
318.5015686
316.0702666
309.770744
292.624597
304.3881083
295.7856784
299.3910216
306.0265931
304.9215682
300.836068
306.802659
315.3561365
313.0536354
299.1069978
289.6002718
292.7800131
304.3477753
303.3297161
299.6701206
286.1720505
295.6069497
298.2071672
297.6436025
300.5097719
302.4618101
307.8497354
318.1053149
303.6399179
302.1167806
296.4856241
301.1899089
307.5892797
297.2117992
279.816598
275.7923973
286.6774217
286.0838409
289.3867484
293.8330331
294.8953565
299.4802907
304.3986264
300.174228
303.8917933
311.7369809
304.3763097
300.4096665
291.9325111
295.0111288
291.3498864
278.3637515
277.8202399
280.8294548
287.4135617
298.3806025
298.0776499
289.1865917
290.0495513
301.5048479
301.3745933
299.6518017
306.0153626
297.1325642
297.3242746
300.427467
298.6585086
287.0252133
289.2513522
287.913083
284.8530095
285.2443716
277.5236932
291.9086268
297.2224024
288.1136114
292.2422933
279.8118144
283.3325396
301.8860984
301.8369961
306.8424118
308.1307761
300.7631183
292.2531956
295.5816534
287.5166285
290.0746438
295.3028108
302.0800417
302.2472613
305.8250388
301.3563696
302.9466843
291.7115732
291.7882397
299.6494937
302.3196699
309.8166628
309.3679654
312.5800097
298.2687623
294.1982271
301.1976637
310.4492498
313.4837983
318.3356879
319.5047579
302.1833043
311.1106808
302.1756316
302.7420711
296.894643
302.4612906
290.3955202
293.5865776
296.9893452
295.1187777
296.8667
310.6328008
313.2487011
301.6096808
291.2026326
290.682707
293.5251194
303.5561422
295.1519471
298.506949
300.2011109
295.5524738
302.4579021
293.573237
290.7962079
285.9211551
286.9888396
284.8168894
284.6996519
280.912437
286.2957786
293.080121
300.6134793
296.77416
299.3128148
297.4818644
305.2684474
313.4306732
311.2610123
302.1153148
300.8162672
294.0444324
298.2000784
305.8905111
293.6366344
297.2132744
300.0435104
299.0378303
302.4181945
295.6999906
295.5782415
294.5420417
295.6939825
297.3700049
291.0737944
298.8463624
307.45322
299.9200064
296.711119
304.9176437
297.0922331
292.5807574
290.002502
293.0328477
292.8888683
295.9726622
312.3178181
294.8455538
289.4011399
288.2732253
298.525417
306.2208096
306.3150264
300.1465073
306.6850158
305.7896846
313.7382978
307.3458923
314.2327483
299.8218834
297.0754239
283.6130986
286.2747557
293.2268548
297.2349044
299.9733235
288.1448583
297.4653269
303.5609484
300.5709266
297.728624
300.1851661
300.1121048
295.9877898
297.2449609
298.9199232
297.6673214
307.4052319
306.4166255
312.159531
313.0157044
310.8880353
315.8818393
299.6227282
299.850553
303.882766
287.8506204
298.990439
303.163318
309.0248571
307.6556759
306.9478636
309.6652764
320.5011655
325.9030103
318.2754303
320.7524528
321.6765342
317.7853447
314.6759018
318.7763152
321.2878452
311.0993667
308.3444744
306.8208927
303.5094616
294.3484718
298.6651492
303.6096172
304.3606281
308.6418091
291.546592
284.4811052
292.8447368
304.3877672
307.7651879
297.7691337
300.4570637
294.9923388
292.1908783
295.1632262
298.6521373
309.2578225
304.490451
289.435714
287.07224
309.829661
304.1984342
306.2153281
314.9351499
320.5216258
332.1183708
327.1581087
317.5385422
311.9571943
312.4895798
318.8565518
316.986776
302.1092205
294.0571948
294.898207
307.3192958
305.0860324
308.9813456
317.4751151
309.9472751
318.3687534
308.6974343
309.2186331
313.6560539
308.0599928
299.2525558
291.5577451
300.7214388
307.8726779
313.4981411
317.1871469
319.8602316
322.3116751
314.6778113
299.3600947
306.9902325
309.2891745
290.8428498
305.4601
314.6443768
309.9261199
309.2090245
309.0716425
309.7480512
308.1709453
293.2633556
304.90125
315.379273
313.1284068
305.9067104
299.2904796
302.4539611
306.4016863
295.1306241
291.0818831
315.3255868
314.3421003
312.8853477
313.5838543
304.9454813
277.4656475
286.4272522
285.107202
281.6405676
304.7087551
303.067533
299.1600216
286.9614972
286.0045065
279.7102796
288.5682729
299.2565575
294.3390304
303.3551047
294.7989354
287.561327
306.9492802
301.3481886
297.6965486
286.017343
307.8033986
306.4990089
313.6002131
312.6793403
297.4179185
300.7741445
295.3365623
292.3060569
292.5520073
301.461706
307.8470117
294.369981
309.2362346
305.4299478
303.4677442
302.2081741
298.1811298
305.2319832
312.895018
311.3000192
289.2515749
283.2627032
282.4485019
280.6519691
293.0293228
296.6042149
323.8686224
326.1559935
320.3857942
312.5810362
315.4186902
301.4759471
296.6300884
297.7760557
305.9682668
300.783776
300.1966011
291.3352481
286.7821861
286.2184485
293.3886029
297.0897017
302.1911373
297.5679815
301.8952832
298.0661343
299.1972405
310.0131042
299.5171865
303.3438879
300.2825565
304.1121273
293.3901609
292.5812427
289.298436
287.7378178
289.9854237
295.4433667
299.0888613
297.0718951
306.4011253
302.3967564
304.2931464
311.1568781
312.8833395
300.9129684
301.8836681
300.4264529
312.6005258
309.9240898
305.4384544
295.2677663
300.7980861
292.9879566
292.9325489
294.1618233
296.0763228
299.7683338
302.1375947
297.5038812
288.9789291
292.9230452
304.7119978
310.5987293
301.7561418
303.5965626
296.9363503
292.9831081
293.8361044
303.5524515
306.134244
304.0200075
305.4351142
312.6333986
306.2192736
316.5644271
317.2880871
305.5083564
303.6748385
294.8593073
307.6037412
296.1158549
289.3766926
294.6430569
308.7800693
302.4461839
301.4912455
304.6776256
297.9328408
291.3886617
285.0159842
290.3648359
293.6645968
298.457962
297.6381227
299.8664707
301.198234
311.4824434
308.6668877
305.7607106
298.0659056
297.0789443
303.4227694
309.3119144
296.2163084
297.3933537
298.5474541
300.6275307
292.1230815
290.6309584
290.654212
286.5334378
288.65894
287.4947895
295.9073571
302.6609865
303.3712886
302.1635633
300.1221775
295.0711178
312.730063
304.1136847
292.6129206
296.2546701
303.7716969
301.8132337
290.9364845
297.4070561
308.5398925
301.8403356
289.6441579
292.2176661
292.5123486
295.2722291
299.1258449
306.2272646
318.1720682
319.6629189
315.8968824
312.862053
289.3626411
304.9375582
311.598184
320.999255
314.722521
311.7062238
306.4484875
304.7651897
293.2015126
292.9896884
307.0017735
310.7511535
314.2703414
299.3409626
302.8630726
304.2142746
283.8295629
288.6684238
288.3129821
284.8236706
315.2890049
319.2798075
314.5429101
299.7153806
304.6614566
293.2093828
290.1879838
285.6828562
290.8776975
291.857337
294.0882063
296.3881581
288.313272
288.4727763
296.9417776
300.7944655
305.3774189
299.8012795
301.7455139
303.7916681
306.3606375
300.7618743
298.5672082
296.1230978
288.4220997
300.1893217
305.6833232
304.4303223
294.6499497
290.1172334
294.2723393
295.424668
302.5141524
305.9053663
297.5267933
297.6977926
292.9253161
299.6866659
297.6800222
296.8643033
290.906671
297.3618811
294.8631024
290.837227
298.4612801
284.9472942
294.3038675
304.657259
307.1150911
307.7112852
309.1240496
301.415053
298.1290084
294.372315
298.1766131
303.9714424
297.2389033
301.2166708
298.4092651
300.6897216
307.0522935
314.0516018
319.653102
327.3604999
317.5807349
313.777376
313.4718875
313.5788447
313.9396625
316.2495175
310.9067131
303.5931647
304.8774206
309.7644812
311.2898042
308.545273
305.1650867
305.5476581
316.7630316
311.9522835
296.4182821
301.4128572
297.4747214
299.3256287
300.1830359
302.8172463
305.1044831
308.5519186
301.5401879
319.18971
317.6487636
314.7636425
307.9172936
307.1054667
310.7113081
314.0222583
311.4474163
320.0353941
316.4968749
304.2575321
298.9601468
293.8614109
307.5200352
302.8850216
306.2692101
295.0751662
292.402103
302.6972389
298.8963938
294.9511799
289.9694958
296.3762524
305.348933
319.0197841
311.5774771
309.6131622
302.3541263
292.0390075
294.5398207
306.9465986
302.7461472
300.2028482
290.5352588
295.9259729
287.904449
293.3440571
301.5090979
299.8135193
294.0464014
293.3594411
288.9961694
293.3605097
292.95819
302.7792455
324.3122865
319.6978021
321.5594966
323.5513767
318.0372693
308.0170134
289.1519594
287.4869593
289.6047248
282.6207436
289.8086657
292.0466158
300.7803929
304.6717083
305.8432546
296.0763856
290.4225286
294.2559652
276.4243354
279.875234
280.4233361
276.3076094
281.7432068
285.2214782
292.8235924
279.5869065
314.5263735
309.2582653
308.644613
299.8512177
295.2983592
297.0619867
296.4454107
299.2784951
295.1307276
282.3103066
285.1361977
294.1861058
298.855286
298.6032431
287.9652397
287.952142
288.3880521
289.0887086
293.4204604
304.301405
305.8314941
319.2998953
317.1713563
324.8633153
329.6146721
317.914771
298.9396142
291.0886037
298.7410875
303.320259
296.9619747
290.3064261
296.7847167
296.5789807
303.5400155
310.9016407
308.4536271
301.8643905
291.1602687
299.0835683
303.8901856
298.0120494
304.815705
302.5616659
286.4147402
295.2837554
300.7164022
301.6540303
297.0750297
299.6623495
297.8088406
310.5020175
307.3719875
288.1966568
286.5591054
287.1965242
288.3642432
290.4664102
290.4450545
295.0067505
304.4153971
310.5431404
299.4443584
304.8492385
301.5374185
292.5261865
296.6936345
304.8132438
316.1435871
306.8269254
311.4836585
298.4760255
297.3986195
310.8345963
308.6943438
298.9656796
298.3522209
282.9607746
283.1969971
286.1540407
297.8491145
301.7956483
304.0140425
308.4905881
304.9030613
302.8761785
298.4546657
294.0249764
292.0523227
295.4718205
293.5883711
302.4183028
308.5855581
309.2444496
302.1038483
312.5504424
305.345218
305.4015033
309.8902176
307.5331224
293.3558219
292.3969196
292.6266928
286.5012025
290.9972899
283.7056163
303.3053454
294.2329576
304.6002635
307.1505551
309.3325734
301.4049043
304.452954
303.8942407
302.5925223
303.0732506
291.6115034
285.390515
276.2186832
287.8667128
274.2780662
287.5353634
290.09023
290.2298075
289.3717796
291.8762898
300.4274381
302.703904
300.2132297
315.9870696
309.910988
314.8291592
302.6691527
309.8555194
301.2521493
288.9742459
309.4018267
294.4854452
288.5024505
284.2643966
298.5036244
302.8193547
297.9465851
298.5654276
293.3610331
292.7631637
298.1652361
284.1196396
282.557466
281.9336572
286.9072881
283.5635848
288.4426179
293.0149572
295.7389153
294.2195124
291.7479211
287.8550531
300.9903242
301.0354734
293.9537907
283.5709643
278.8361984
284.7819096
287.4121725
285.9978802
293.1670569
302.6804099
299.5577304
301.2092621
312.6577468
301.8693499
304.2717331
310.4253452
310.24142
316.3922474
313.9174805
308.6961405
302.3616777
299.976515
311.9157887
306.1194048
301.9278147
300.8692342
295.963156
296.678372
299.4987283
301.9092216
294.4162677
300.1889112
302.7404225
301.828452
306.565924
316.7829976
312.2861528
312.8717801
305.2265683
291.4949105
301.3703185
312.0950465
305.0779461
311.7973029
309.389611
307.8758526
314.1293347
312.0623469
320.5708566
316.4566512
308.6006936
307.9922802
307.1436699
302.9269077
308.6472789
300.8173118
303.6787346
293.6727147
276.2236583
287.3109057
294.7043882
298.7370382
307.634427
308.3968638
306.1971281
301.8708136
295.0603003
287.8944515
288.7846187
297.9490232
294.5160048
291.6573259
295.6938627
297.5266877
300.2903245
299.0964293
292.7957608
307.8322405
303.4475407
302.0424805
303.3747756
303.5899939
311.7560356
310.9451609
307.1566857
303.4783322
306.2037058
307.4197104
307.3003901
304.1000891
309.7127157
295.6409655
299.0040376
300.4929557
297.8152902
301.1582436
311.1546705
306.5398176
295.675843
295.5439007
293.9268534
303.7170898
297.4334688
295.5857853
279.9156537
279.6250222
285.4760467
288.911455
293.0182569
299.749513
306.0463767
304.6927118
302.7397775
311.3793026
311.8176644
297.2876113
291.3867802
288.4778794
295.5153551
308.8252601
312.5045414
314.8159807
304.6370216
300.6622102
298.7665449
308.4903072
310.2755741
305.4975608
290.7905526
286.9495111
285.9022986
294.671923
295.0092554
298.4023106
311.9989251
311.2686446
309.0389238
306.2345773
298.6441152
295.9182173
291.5616952
294.5436054
288.4469721
277.1471419
283.4863013
281.7933957
283.8400563
284.9389155
296.6048627
287.1771412