/*--------------------------------*- C++ -*----------------------------------*\
| =========                 |                                                 |
| \\      /  F ield         | OpenFOAM: The Open Source CFD Toolbox           |
|  \\    /   O peration     | Version:  2.4.0-MNF                             |
|   \\  /    A nd           | Web:      www.OpenFOAM.org                      |
|    \\/     M anipulation  |                                                 |
\*---------------------------------------------------------------------------*/
FoamFile
{
    version     2.0;
    format      ascii;
    class       volScalarField;
    location    "0.0008";
    object      p_mixture;
}
// * * * * * * * * * * * * * * * * * * * * * * * * * * * * * * * * * * * * * //

dimensions      [1 -1 -2 0 0 0 0];

internalField   nonuniform List<scalar> 
5120
(
0.3949154881
0.3990121329
0.3661832066
0.3634552435
0.3718210486
0.4005594718
0.4166297977
0.4025448233
0.4043566304
0.4100190455
0.4274805756
0.4127146546
0.4342196744
0.3995334665
0.4085651403
0.4212533223
0.4085480382
0.4375978169
0.4080654254
0.4080081648
0.3756709191
0.4050797261
0.4176911285
0.4226967764
0.4226097115
0.4289266471
0.4240160142
0.4370536984
0.4422983345
0.4362000344
0.4271920169
0.434251164
0.4097410687
0.4045549906
0.4012215907
0.418873678
0.3782808232
0.3631130706
0.3798946546
0.3759220208
0.3746516586
0.3900022778
0.3983780209
0.380760667
0.3789591369
0.403317726
0.4218069422
0.4252084486
0.4015016164
0.3954744914
0.4054354186
0.3780577251
0.376154928
0.4033128823
0.4155407739
0.3876932078
0.3769642018
0.3846154739
0.3950168556
0.3866080251
0.3864132854
0.385471986
0.3793453
0.4134393908
0.4385589599
0.4258625303
0.4274231615
0.4423436581
0.4498024193
0.4402587635
0.4510742014
0.4279980462
0.4038907404
0.4249788334
0.4352975032
0.4235143615
0.4448042628
0.4374144682
0.4119654864
0.3876840892
0.3957891459
0.4119328302
0.4027027287
0.372595048
0.383282429
0.4134845937
0.4239976858
0.4055191633
0.4075256398
0.4428714912
0.4356813697
0.4395965108
0.4260962446
0.3888355583
0.3582360087
0.3693261742
0.3982618928
0.3933581218
0.4018086362
0.4092683221
0.4211782175
0.3872431364
0.4028661241
0.3951929166
0.3961875045
0.3784381183
0.3825068049
0.3921611684
0.3966592192
0.3771486585
0.3969460889
0.4071495869
0.4052804132
0.3994740487
0.4255914351
0.4390102528
0.4133636449
0.4214033767
0.3983898787
0.4004464885
0.4210487949
0.399494911
0.3864906355
0.3952213543
0.4051957842
0.4437830639
0.4187831715
0.4376905966
0.4431428163
0.4359587149
0.408245939
0.3796506809
0.3854252231
0.4085592893
0.4470109316
0.4538994736
0.4376771301
0.4307992901
0.4079715525
0.3990448401
0.3983497967
0.3747973375
0.3833945091
0.4027738996
0.4091685839
0.4160706933
0.4517104732
0.4417154587
0.4153324995
0.3936702886
0.4034632856
0.3971153477
0.4215764062
0.4395400182
0.4154817972
0.4106443018
0.404144702
0.4012703683
0.4211371902
0.4195943587
0.4600229128
0.4612144781
0.4484993886
0.3994041708
0.3973360908
0.3981842103
0.3886434624
0.4261918685
0.4296269054
0.4156722378
0.4132270703
0.4305447394
0.4173985222
0.4352233141
0.440232693
0.4167819687
0.420262961
0.4325636062
0.4249308468
0.4438934996
0.4043535916
0.3886342131
0.3894909011
0.3801430167
0.4036646572
0.4107774147
0.4032439209
0.4048289813
0.4302553311
0.4424719991
0.4273499792
0.396406139
0.373415127
0.3786659124
0.3852407885
0.4019275105
0.4227008395
0.4146011471
0.4320477587
0.4489268071
0.4420727355
0.4423616407
0.4138737291
0.3869074642
0.3802607366
0.3996271283
0.4078686122
0.4093350943
0.3950665984
0.3846373442
0.4119687723
0.4477865338
0.4116789352
0.4108222992
0.3956440874
0.4366332858
0.4419235734
0.4493136013
0.4295995857
0.4195165993
0.4193611636
0.4373506352
0.423641548
0.4313979667
0.4129343214
0.4371742172
0.4238923595
0.4236414759
0.4321215145
0.4113392034
0.3894302267
0.3849859523
0.3783102033
0.4061085932
0.4284238942
0.4355357767
0.4408841446
0.4128898506
0.4444552594
0.4305909361
0.3919051646
0.396891754
0.4146161403
0.4323001425
0.4422627137
0.4079981472
0.4243722745
0.416869157
0.4144985679
0.4563588112
0.4530346131
0.4434323638
0.4113529031
0.4255403577
0.4270240774
0.4418200935
0.4254742009
0.4330603726
0.4042692941
0.3684091144
0.399610705
0.400046752
0.3924738693
0.4016531484
0.3929630812
0.4207244598
0.4041961177
0.3702877639
0.3721502084
0.3714474992
0.4117837176
0.4359529894
0.4347475729
0.4308832663
0.4110087276
0.4279356449
0.4580746088
0.4484307421
0.4104143961
0.4136312116
0.3857432945
0.4118152673
0.4129283122
0.4186915517
0.3956892696
0.364497465
0.3842147872
0.3778039288
0.3788976193
0.4139623548
0.4276710559
0.4288033892
0.4247488342
0.4356210206
0.4511920679
0.4302023476
0.4286821493
0.4262567643
0.3809026291
0.3882569674
0.3715115405
0.3440527793
0.3626792727
0.366645093
0.3694183175
0.3741383543
0.3863400827
0.4120123974
0.3976998544
0.3792108394
0.3802611763
0.4207715829
0.4604190495
0.4689403336
0.4522294089
0.4368705812
0.4120051707
0.3924219784
0.4091152996
0.398759348
0.400568358
0.4153493978
0.4023217619
0.3856958175
0.4125209789
0.4073897468
0.4214832091
0.4206724937
0.4194576482
0.4091721227
0.3969469568
0.3992957624
0.4210132954
0.4109695479
0.4442653524
0.4311269711
0.4417028803
0.4012516005
0.4353997248
0.4076861944
0.389098615
0.3773973787
0.425889355
0.4518422537
0.4276235262
0.4618001804
0.451453447
0.4463039582
0.4363325648
0.425246511
0.4118425589
0.3840361414
0.3865037332
0.4129061215
0.4127153107
0.4110795424
0.4345040617
0.4551903373
0.4121828802
0.4045047661
0.4010750626
0.4123796621
0.3902470462
0.3873887405
0.3945179674
0.378230859
0.3879724577
0.3740745648
0.3738074047
0.374284049
0.3927104079
0.404125567
0.4208592533
0.3968963913
0.3737921249
0.4034757099
0.4166829205
0.4085410225
0.4108165384
0.3972264946
0.3996348276
0.4129286442
0.423166034
0.4241145483
0.4110585284
0.4164248997
0.4217707415
0.4443179346
0.4497897192
0.4534360057
0.4082755787
0.4195442324
0.4465414362
0.4551003019
0.4293519082
0.4115140514
0.3660516952
0.3662529911
0.3841013212
0.3922654072
0.4231221111
0.4265794723
0.4396241506
0.4564348043
0.4454423725
0.4662611419
0.4433827002
0.4297388293
0.419447333
0.4006858864
0.406902003
0.4075910805
0.397596392
0.3717088849
0.3874550353
0.4136979894
0.4185321288
0.3955389983
0.4028597654
0.4113960898
0.4381380342
0.4711763899
0.4617980936
0.485097579
0.4531363868
0.4046333456
0.3725345161
0.3602675467
0.3816945392
0.3893913359
0.3708185418
0.4116112675
0.4233972001
0.4714174494
0.4646296777
0.4299101976
0.426221058
0.412824046
0.4082801483
0.4189942109
0.3963982411
0.3992085228
0.4159506091
0.4208932842
0.4103771628
0.4290979175
0.4273819611
0.3986652496
0.3772478588
0.3913197778
0.4375818674
0.4342436478
0.4235219354
0.4010680144
0.3925456501
0.4015148459
0.4261293813
0.4134657453
0.4200661179
0.4101320767
0.429007648
0.4651515596
0.4643187353
0.4745899156
0.4517355407
0.4271965895
0.4393971278
0.4663850625
0.4547824806
0.4720504345
0.4777405992
0.4511465764
0.4425197504
0.4227291397
0.4229150122
0.4342180741
0.432533499
0.4388711009
0.4555917548
0.4476720479
0.4439246611
0.4161850054
0.4148359999
0.4342222015
0.4449926473
0.4797541686
0.4683864487
0.4268102667
0.4133641788
0.4057660815
0.4182509521
0.4282793733
0.4504475106
0.4695052115
0.4520671413
0.4379347694
0.4391740751
0.4365849866
0.4680564091
0.4787710595
0.4215021118
0.4396283395
0.4361270603
0.4507751852
0.4110798624
0.4240672367
0.441913198
0.4537088456
0.4191680437
0.382711107
0.3698392431
0.3879667893
0.3718302519
0.3823869211
0.3998604261
0.3974814376
0.3885375614
0.40129795
0.4124613721
0.4025692431
0.3923718262
0.3932265445
0.4115209389
0.3962560628
0.4147053554
0.393258981
0.4169434863
0.429005753
0.428986913
0.4281953677
0.4027136272
0.37959017
0.3909339374
0.4085918002
0.3800706192
0.3921465113
0.4090509061
0.403416587
0.3957461125
0.4174628004
0.4124508237
0.4104229401
0.3994533081
0.4244788222
0.4202037671
0.4031316578
0.4108830607
0.4224887683
0.4182378088
0.4251929217
0.4062554619
0.4214090691
0.4199129588
0.3988600705
0.3850542314
0.3715632371
0.3781031217
0.3704772582
0.3736623668
0.3777210222
0.440571712
0.4411490219
0.4103420919
0.41426736
0.4303188438
0.4721997355
0.4463436739
0.4215312857
0.4179551488
0.4441390008
0.4383384408
0.4279292482
0.4222848659
0.4048095181
0.4097206477
0.4051017624
0.3843956497
0.3970249061
0.4034440781
0.4278098757
0.4112540301
0.4062323336
0.4194617374
0.4235034822
0.4222468397
0.3742845539
0.3813025385
0.4092854879
0.412070849
0.4196126943
0.3985662842
0.4326476286
0.4564472484
0.4639704865
0.4424246956
0.3973618355
0.4016998707
0.4222460026
0.4496041142
0.4190582916
0.3779397332
0.3484946849
0.3352922289
0.347882408
0.3867389048
0.4072207278
0.3863655007
0.380431688
0.3798022454
0.3820199909
0.3864426791
0.4102144752
0.3902833723
0.3775570851
0.3926652491
0.4309622582
0.4392878553
0.3947951318
0.3889186486
0.3935318014
0.4073299498
0.4221876864
0.4190841648
0.4216197468
0.3740853602
0.3669150942
0.3884836344
0.40737766
0.3995674223
0.4106403337
0.4089920782
0.3974414003
0.3922438787
0.3810784971
0.3724828172
0.3691339393
0.3881708903
0.3810951862
0.3765667869
0.3945450021
0.4209863184
0.4154215211
0.4318579019
0.4247396482
0.4348081218
0.4430710865
0.4373671153
0.4144579999
0.3961109335
0.4113188513
0.3968584087
0.4273364648
0.4249311919
0.4085692825
0.399061971
0.3927187222
0.3936054517
0.4114104152
0.401588316
0.4005167339
0.4462903708
0.4211093056
0.4138581884
0.3991849939
0.389074027
0.4225468065
0.4260288163
0.4266822525
0.3832137172
0.373457306
0.3816676574
0.4278801668
0.4048161651
0.4080458029
0.4143182596
0.4038275924
0.3885636616
0.4066083008
0.4103134952
0.4248871525
0.417839193
0.4340957908
0.4496716888
0.4357855641
0.4377555818
0.4507923488
0.4163955458
0.4089090505
0.3832403539
0.3870102683
0.3764968326
0.3742093966
0.3620190644
0.4057053647
0.4152714281
0.4215487476
0.4213133932
0.4132324164
0.4095578047
0.4212740933
0.4523018918
0.4255606331
0.3923956526
0.4059279286
0.4088599352
0.4057019306
0.4022605394
0.3929557694
0.3960585761
0.3825625838
0.3995875291
0.3969984439
0.4111979208
0.4174532069
0.4125383351
0.3987424061
0.4097544212
0.4115342188
0.4176662214
0.440388334
0.44176042
0.4291327345
0.41040774
0.4128180929
0.4256682185
0.4197088714
0.4284862213
0.4066823685
0.3777739037
0.3851207529
0.3887477247
0.3934911467
0.3815318492
0.3860370025
0.3986663952
0.3987661965
0.4249833674
0.4517620205
0.4608536961
0.453115298
0.4364112127
0.4132303445
0.4364085719
0.4302928329
0.4128350875
0.3949596721
0.4023915314
0.4022764051
0.4105499125
0.4019655
0.4286955597
0.4128841093
0.4048428823
0.4191695741
0.4189542608
0.4363416444
0.4289265452
0.4085685244
0.4168156928
0.4618125697
0.4292795029
0.4337574365
0.4121913012
0.395642948
0.4062695619
0.4045151006
0.4232431515
0.4059539004
0.4240477182
0.4130626932
0.3945039572
0.4043348132
0.3936252613
0.4012272497
0.4237771755
0.4078822787
0.4222143047
0.4341297987
0.4166383675
0.4286392143
0.51034732
0.4891092337
0.4553800312
0.4252923413
0.4166572696
0.4042754623
0.4208818871
0.4207852227
0.4119027072
0.4295649413
0.3902003965
0.4215818949
0.3999175525
0.4084937123
0.4489495129
0.441473455
0.4103170724
0.4123484014
0.4259410792
0.4433072742
0.3954142632
0.4233642026
0.4237813099
0.447395715
0.4471816028
0.4473052861
0.4248922361
0.4301132528
0.4093259812
0.4122454072
0.4053207763
0.376423886
0.4124640812
0.4179567617
0.4107173932
0.4141204002
0.4411602568
0.4276715921
0.4389414319
0.4265618377
0.4335699564
0.4086273655
0.4151482058
0.4401734607
0.4610711837
0.4358267442
0.3872955673
0.384641287
0.4042805648
0.4073729609
0.3943073272
0.3942008161
0.4011665259
0.3673926833
0.3758454013
0.4208142317
0.4144237338
0.4248940778
0.4114052847
0.4023040152
0.4239959243
0.3823968504
0.3835912394
0.4151202986
0.4424414684
0.4443477287
0.3981748469
0.3981617267
0.3970114957
0.4227484471
0.4163383328
0.4253378897
0.4335784073
0.4431223127
0.4351827736
0.4480163761
0.4311297043
0.4073396944
0.4241067488
0.4413115606
0.3798666952
0.4389098187
0.4128608362
0.40519995
0.3949137076
0.4262211021
0.4416945371
0.4522530359
0.4327364963
0.4294084521
0.4177340015
0.4110508999
0.4072836473
0.3812388483
0.4028339273
0.3661263365
0.3757295162
0.3716153921
0.3884345371
0.398572221
0.4280912613
0.4362946841
0.4232333041
0.4312618867
0.4184337595
0.4054402449
0.4077050268
0.404899807
0.4109959681
0.4142628563
0.4270446845
0.4311679771
0.4430813131
0.4614912975
0.4264857743
0.4351369605
0.416893461
0.3957957833
0.3909227876
0.4237944866
0.370153398
0.3827566632
0.3960178304
0.4035967833
0.3799183579
0.3939609236
0.4201793514
0.4351722243
0.4183678375
0.388646489
0.4169152721
0.4255441755
0.4170094037
0.4082481532
0.4171480688
0.4202213043
0.401001379
0.4030746612
0.4022472329
0.3787984903
0.3943095141
0.3942798344
0.3837369733
0.3992876999
0.4075326725
0.4292659334
0.4058075442
0.3973818805
0.3789916917
0.3945325107
0.4245230719
0.4021342581
0.3854915938
0.3837558007
0.3691156938
0.3668669945
0.3632743741
0.3670552014
0.3874761073
0.4084732629
0.3834822389
0.4010141955
0.3958742481
0.4036756812
0.4053389103
0.404114099
0.3972761011
0.3973780895
0.3818983062
0.3772536752
0.3674917671
0.3644609029
0.3382848719
0.3503592481
0.3535681655
0.3738792182
0.376265308
0.4012712292
0.4197414002
0.4170759329
0.4152994732
0.406676896
0.4123801029
0.4284232321
0.4241019606
0.4341859226
0.4190351128
0.4266245047
0.459907404
0.4649177049
0.4606741861
0.4238423799
0.4343562568
0.4136723209
0.4142528695
0.4342164967
0.4333051591
0.4054668488
0.3956370452
0.4048163586
0.4325806364
0.4305060322
0.4084721453
0.401041008
0.4016538911
0.3913827686
0.4057951163
0.4236042124
0.4602315435
0.4697149907
0.4403802048
0.4450069548
0.4438084481
0.4445715569
0.4024583772
0.3816052189
0.3987109742
0.3966966465
0.4164747579
0.4337217394
0.4350915995
0.4467779958
0.4283221258
0.4055405372
0.3901012509
0.3769052176
0.4008874409
0.414087597
0.410575326
0.4458678209
0.4753825619
0.4334767983
0.4140345565
0.4154217215
0.4535660516
0.4341020788
0.428764812
0.4335654433
0.4356020217
0.444610598
0.4280960562
0.4523469235
0.4656123456
0.453957749
0.4208422932
0.4020846248
0.408885131
0.4134764572
0.4440446305
0.4419605679
0.4186463495
0.4442561785
0.427943416
0.411542221
0.407798657
0.4408501007
0.4541689545
0.4422536643
0.4321981215
0.4120369605
0.4330052334
0.4044103263
0.4280896247
0.4476817835
0.4444419909
0.4288432806
0.4139441322
0.4180037196
0.4217165421
0.4208475953
0.4361093352
0.4126612842
0.4226014959
0.4322428623
0.4262161829
0.4018853134
0.4007863924
0.3897377779
0.4246412948
0.4314316283
0.4349384802
0.4186645966
0.4188356832
0.4323884487
0.4512832399
0.4475345615
0.4091746417
0.4236959103
0.4124332886
0.4385230186
0.4526951379
0.4474615509
0.4525850074
0.4372522725
0.4412272431
0.4189255812
0.4065474332
0.4455093953
0.4356162939
0.4185954354
0.3868366858
0.4135849101
0.4018127885
0.396394305
0.4065043891
0.4037673957
0.3835957933
0.4040014854
0.406400339
0.4104004482
0.3929408194
0.3950266688
0.4224411777
0.4017430655
0.384343324
0.3976551432
0.409284467
0.4263484627
0.414830999
0.4242691948
0.404094332
0.3947075331
0.3976059674
0.4035445345
0.4371944202
0.4294660542
0.433724527
0.4121956382
0.3874185782
0.3889237784
0.3986839393
0.3881944131
0.4040228317
0.3962703609
0.3741475831
0.3619623174
0.3768861443
0.3815063538
0.4058087468
0.4377126212
0.4126367258
0.4135653351
0.43342419
0.4009090417
0.3800198797
0.3872715412
0.3864792251
0.3608821351
0.3894924819
0.4154973261
0.4334338355
0.4278268267
0.4155336104
0.4148811177
0.3956272396
0.4222451528
0.4266590104
0.4372419783
0.4180117657
0.4044858428
0.4043754861
0.3918228407
0.3964514851
0.3960965705
0.4097655979
0.4042133356
0.4257266778
0.4326786472
0.4039665656
0.4118366335
0.401423674
0.3941941405
0.3908371358
0.3689029227
0.403611721
0.4002461045
0.4123464824
0.4128298159
0.4172332854
0.4186990743
0.42427143
0.4439474818
0.4545256586
0.4117980465
0.3986283036
0.3952627046
0.376798394
0.3709290147
0.3969969319
0.3783794957
0.3988032418
0.412855491
0.4224017069
0.4172588972
0.4061440671
0.4214288302
0.4285364596
0.4237779658
0.4198269214
0.4090647107
0.3988536292
0.4084522036
0.4109376837
0.4280936758
0.4191364852
0.3936885302
0.4063207199
0.4030361174
0.4194407936
0.4507003619
0.4741045293
0.4465205402
0.440401735
0.4279546099
0.4188212079
0.4315106983
0.3970950111
0.3893502735
0.3806448731
0.3647731806
0.37438587
0.383151106
0.4150677004
0.4485829168
0.4587593186
0.4165419628
0.397880375
0.3724805183
0.3900713224
0.4018737355
0.3864783217
0.4180514624
0.399675452
0.3908094733
0.3763805987
0.3553974638
0.3623368391
0.4031821592
0.4025712425
0.391930728
0.382818445
0.3833745656
0.3787014599
0.3681298973
0.3729199558
0.4115886654
0.4591334452
0.4506195789
0.4248237661
0.4302035585
0.4011839794
0.3975509492
0.3970242698
0.3925805508
0.4214383537
0.4184197205
0.4043078216
0.3946895599
0.3774929128
0.3705013243
0.4125075509
0.4297280883
0.4037158878
0.3654555743
0.3548468741
0.3698899299
0.3467416575
0.3464622778
0.372185067
0.3561702075
0.3635869827
0.3734635552
0.3755633213
0.3838717829
0.4158638487
0.41548343
0.4078595967
0.4090786514
0.4240571632
0.4127009189
0.4158279791
0.4074154114
0.4461093532
0.4484524023
0.4232508608
0.401222792
0.4103319985
0.4213194713
0.4330496232
0.4525404848
0.4311855166
0.3862393799
0.3918763713
0.4246136967
0.4209063109
0.4202484998
0.431531781
0.4035655634
0.4095580219
0.3916745021
0.4414882492
0.4322041965
0.4418694682
0.4389743466
0.4324398484
0.4202504497
0.4146680536
0.4084815987
0.3815572753
0.4221600561
0.4115689912
0.389450706
0.3865803708
0.4097045992
0.3941373586
0.3940030693
0.4137336531
0.4173581627
0.4374683961
0.4314141028
0.4375653691
0.4329136814
0.4373429806
0.4522003247
0.4504747299
0.4576901497
0.4479567692
0.4582862998
0.4522122205
0.4305133312
0.420907349
0.4298397844
0.4393529592
0.4183562385
0.4172546232
0.4311945995
0.4549132096
0.441230884
0.4404123594
0.4346487714
0.4064963187
0.3934242748
0.3766658229
0.4332099442
0.4488044989
0.4361022206
0.4227501436
0.4191544839
0.4468812934
0.4342174515
0.3919752547
0.4379230935
0.4382731237
0.452113796
0.4695987692
0.4809014719
0.4376742698
0.3992439391
0.4111388627
0.3927011173
0.4224697827
0.4078548535
0.3900502985
0.3691073626
0.4050323627
0.4308321234
0.4416226276
0.4281682134
0.4103503132
0.4329485972
0.4209741224
0.3989951382
0.4306963837
0.4413167928
0.4766268958
0.4618612052
0.4654257692
0.465601407
0.4755407867
0.4245878757
0.4457942327
0.4261389176
0.3893546653
0.3722235491
0.3846068158
0.4166315941
0.4260341695
0.4476828989
0.4411554267
0.4266055967
0.4370200232
0.4702188066
0.4617088923
0.4433853122
0.430938243
0.4292639918
0.4544462577
0.442175608
0.4359831719
0.4557120591
0.394355408
0.4226499189
0.4240971201
0.401076259
0.3772111677
0.4068004274
0.4626599989
0.4685600148
0.4392765936
0.431693939
0.4157869162
0.3999931379
0.406859124
0.4324008582
0.4281636379
0.4105266133
0.423941108
0.4130603215
0.4094492697
0.3968663696
0.4175285913
0.3912730029
0.3953777328
0.434118018
0.4056519402
0.4327995668
0.4355019772
0.4239072053
0.4327623493
0.4349289293
0.4383209152
0.4060768412
0.4263109996
0.4305082378
0.4221371692
0.4174963923
0.4046603908
0.3846697121
0.3924326012
0.394815945
0.3954588757
0.4201468091
0.4374583083
0.4390180241
0.4467257794
0.4579518314
0.4376098537
0.4189020698
0.413230751
0.4220883619
0.4243985896
0.4397494862
0.4398919153
0.4538431148
0.417205407
0.3757855055
0.3522617184
0.3902455315
0.3646068538
0.3965024857
0.4342995028
0.4192190667
0.4167947375
0.4192078467
0.4322367518
0.3920152962
0.3898485375
0.4244408022
0.4374409985
0.4375826841
0.4177493082
0.4217058295
0.4349626266
0.4080994629
0.4470236541
0.4438141405
0.4447988039
0.4095576331
0.4041910467
0.4129691092
0.4210848396
0.4461017211
0.4034596977
0.396246893
0.414781297
0.4292715132
0.423441287
0.4391166447
0.4231304301
0.413073617
0.4333754177
0.4523532874
0.4170903417
0.4311472762
0.418045035
0.4132315033
0.4310771671
0.4453238689
0.4486909262
0.4408169347
0.4098070066
0.3923190102
0.3882291475
0.4231975984
0.4130181793
0.4034918038
0.4036378402
0.411711546
0.4179668883
0.3904841697
0.3894915298
0.3992279716
0.4531658946
0.4850562571
0.4599892059
0.4123466199
0.3776118965
0.394881642
0.4189319041
0.4068299593
0.4179727435
0.3730137879
0.386820682
0.3824909478
0.4148446091
0.4382437369
0.4280027403
0.4601383716
0.4319150651
0.4278825578
0.4386369809
0.4312850853
0.4294089629
0.3916595237
0.3999203131
0.3932594103
0.4166782753
0.3861490698
0.3963207955
0.4044822484
0.4036918379
0.4255017488
0.4254279701
0.3905174746
0.3782083898
0.4153446853
0.4310055274
0.4234156388
0.4427588911
0.4321648444
0.414930921
0.4169430982
0.429125336
0.4142841166
0.4125606721
0.4205667837
0.3983796599
0.4063562224
0.4001198175
0.3988581089
0.4455451347
0.4300070475
0.4259164924
0.4320921729
0.4051930566
0.4328946797
0.42243134
0.4321091185
0.4203254276
0.404482507
0.3984326051
0.4071337592
0.3684758826
0.3751317217
0.3883357891
0.4164299546
0.4326444824
0.4461909798
0.4525010588
0.4407480525
0.4211776734
0.4009684378
0.427592772
0.4259303969
0.4409591129
0.4422274675
0.4263928773
0.3828749148
0.3887035607
0.4163332137
0.4310868456
0.4301201635
0.4440993848
0.4564465277
0.425490818
0.4337291978
0.4359677691
0.4207695252
0.4240811627
0.4223269126
0.4056529071
0.4189975877
0.43275741
0.4307540705
0.4570209537
0.4643678775
0.4704469402
0.420673038
0.3710457195
0.3671875356
0.3925591739
0.4433518318
0.4327930542
0.4170120845
0.4124634442
0.4183631499
0.436264789
0.440177369
0.4162567089
0.3961833249
0.4172593558
0.4035019126
0.3983652775
0.3866020211
0.3880069101
0.376368834
0.4031976627
0.4517563249
0.4577073091
0.4629359061
0.4362989345
0.4114893066
0.396511969
0.3873801133
0.404062589
0.392223897
0.3928258105
0.4191668106
0.4282974605
0.4542754776
0.4022420389
0.4008610763
0.4141931903
0.420338955
0.4147330838
0.3986026508
0.413687798
0.4433845225
0.3941494923
0.4152897347
0.4428189625
0.4330974897
0.4061214046
0.4286279908
0.4352514936
0.3925844925
0.3911573562
0.4002569762
0.40966048
0.3993332323
0.4102472143
0.3830522741
0.3875745743
0.3659341107
0.3816199549
0.405909995
0.4160256075
0.3934647578
0.3884278393
0.4224460663
0.4449365051
0.4631986678
0.4482876078
0.4290812835
0.4022547122
0.3742703497
0.3653495742
0.3704945985
0.3977890029
0.4005358991
0.3907740915
0.4274942565
0.4363740512
0.4231612112
0.4069311084
0.4049433553
0.4041891682
0.3927049378
0.4153434441
0.4073266752
0.4115883876
0.4097611077
0.4149664118
0.4273624763
0.4437591877
0.4293012611
0.4422953978
0.4182515137
0.3917367391
0.3926531304
0.3794836502
0.4116396664
0.4525322989
0.4850785045
0.481059537
0.4570531552
0.4577203938
0.4427323766
0.4323636532
0.4361673111
0.4453584988
0.444935485
0.4557345867
0.4522774146
0.4201580244
0.441198981
0.4006499692
0.4007244618
0.3987902317
0.3939917896
0.4618874353
0.4481522227
0.4305440997
0.4196035716
0.43235287
0.4112704825
0.3988103267
0.4039734112
0.4480486475
0.4407123778
0.4143387502
0.3951758937
0.3801095795
0.3797270269
0.4034357243
0.3919144393
0.4191063585
0.4190937608
0.4092100105
0.4145987988
0.3814074222
0.3931807839
0.3920884268
0.4016490787
0.4187408752
0.4352558264
0.4432324008
0.4496670221
0.4400623399
0.4560616793
0.472380238
0.4705234272
0.439078548
0.432730693
0.4376469421
0.4735187606
0.4671267829
0.466099077
0.4643779237
0.4267322384
0.4365252563
0.4383832352
0.4380167851
0.446788877
0.4337586231
0.4100528769
0.4056609672
0.4091972612
0.410107349
0.4233257902
0.431231845
0.4433545077
0.4410259226
0.4271251459
0.4053310791
0.3997525093
0.4159838952
0.4182902354
0.4349280808
0.4297820105
0.4369740921
0.4396474243
0.4362887813
0.4382887362
0.4277905077
0.4069931718
0.4289636278
0.4231718194
0.4381761591
0.4286907044
0.4087349698
0.4068321544
0.4093984132
0.3994330399
0.4045495722
0.4174088965
0.4157461283
0.41272602
0.4262196277
0.425168486
0.39480717
0.3957209931
0.3818945259
0.3574547046
0.3923303688
0.4107775746
0.4127579561
0.404250712
0.384158351
0.3839149931
0.3902125393
0.384551184
0.3904033573
0.4127837446
0.3942036138
0.4150921802
0.4405292077
0.4232381713
0.4075928066
0.3831965097
0.3966592595
0.3944940647
0.4151420774
0.4413747526
0.4120567981
0.3998450523
0.3993722135
0.3826872111
0.3813565028
0.3964597003
0.4020850654
0.3715402932
0.3980953912
0.391000323
0.3802157216
0.3765481205
0.3692198015
0.3762137191
0.3936331558
0.4016152893
0.3913752717
0.4050737115
0.4166415877
0.4186751789
0.4211653982
0.4396385623
0.4575542575
0.4395189181
0.4122400486
0.4125750801
0.4068213023
0.3865158447
0.40224738
0.3845114151
0.4140765195
0.4018719194
0.4065316604
0.390004591
0.3957244256
0.4010583653
0.4558971921
0.4488620266
0.4265167769
0.4016458772
0.3953910203
0.3822386654
0.3991520439
0.4117291394
0.3844358845
0.395907248
0.411066195
0.4145248398
0.3890464052
0.3908183875
0.4014812064
0.3870811647
0.3569397922
0.3858679947
0.4353998446
0.46766713
0.3874957737
0.385977344
0.4033239737
0.4279889789
0.4244116785
0.4271727683
0.4220873204
0.4134800602
0.448328788
0.4551593645
0.4397126539
0.4120746938
0.4175684868
0.4161177809
0.3924099192
0.4012699535
0.4139781358
0.3858508124
0.3944343123
0.3958167924
0.3552003844
0.3792256128
0.3835585308
0.3979268092
0.3919104792
0.3910388971
0.3960802649
0.4131131423
0.4090225762
0.3885002954
0.4086586864
0.4121244486
0.4179012501
0.4440262846
0.4340153619
0.4343526309
0.4081822036
0.4129711401
0.4215924937
0.3945913252
0.4283593339
0.3826418331
0.4057356678
0.4289411898
0.4279187917
0.4082125544
0.3872768316
0.3829621561
0.3840036711
0.3796120325
0.3794786286
0.4021116896
0.4108572578
0.4032869631
0.3787419099
0.4001946878
0.4198526142
0.4325424794
0.4394223422
0.42356091
0.3702032644
0.3680233494
0.3797769465
0.4013107037
0.3802893332
0.3958217372
0.3966890399
0.4063853107
0.4035973376
0.4026629734
0.4030955196
0.4034973068
0.3755187186
0.3997659322
0.4317006431
0.4620240712
0.4415572244
0.4215010614
0.4001268762
0.358058934
0.4576960438
0.4414871362
0.4031496691
0.396461667
0.4322712154
0.4057262573
0.3871098769
0.4071938986
0.4185213463
0.415132848
0.3991480051
0.4173867093
0.4148990914
0.393307678
0.3821072543
0.3955199685
0.419366707
0.4070983135
0.4220298452
0.4299367614
0.4050924443
0.4291406419
0.4473226154
0.4438299224
0.4470844192
0.457342849
0.4520805655
0.449000275
0.3833407306
0.3701179604
0.3560836984
0.3646547189
0.3966664148
0.3923176749
0.4245129067
0.3962229178
0.39767393
0.4239518107
0.4057873054
0.4043003866
0.4228088002
0.4181960327
0.4161693205
0.4092599441
0.43889023
0.4151442765
0.3923743755
0.3873617134
0.4161277958
0.42734372
0.4440424499
0.4170289908
0.4022069553
0.3873031015
0.3695802476
0.3761706017
0.3909318922
0.4019767803
0.4042774937
0.4250092485
0.4358312808
0.4190781444
0.4088561205
0.4107981371
0.4099938006
0.4305370988
0.4492013817
0.4522907971
0.4322069277
0.4056268129
0.4122588475
0.4333358553
0.4253249769
0.4274248568
0.4342071096
0.4247177838
0.4043018667
0.4105089547
0.4169956039
0.4156780458
0.4060480329
0.434721779
0.4570192663
0.4551889835
0.4581028526
0.4276538084
0.4242591403
0.455249717
0.4284207583
0.428541313
0.4210420339
0.4093364759
0.3953212839
0.3768988807
0.3920172552
0.3984064809
0.4138211797
0.4358791654
0.4345118159
0.4373080824
0.4418146979
0.450060972
0.4420510622
0.463095881
0.4290220468
0.4221614541
0.4202478327
0.4214057927
0.4379049949
0.4326230395
0.4372888954
0.4229966781
0.4227833337
0.4574275798
0.4510458473
0.4279609743
0.4255854552
0.4285380863
0.4370517491
0.4456226328
0.4039169099
0.3961667783
0.4106165894
0.3995057608
0.4030948835
0.4090778503
0.4133010024
0.4243255367
0.3928468846
0.432140414
0.4449352315
0.4288720822
0.4326661458
0.4404720145
0.4177446749
0.432203159
0.4171005499
0.434691188
0.4264467792
0.4098170136
0.4289641231
0.4162195964
0.4418267461
0.4663047029
0.4563217412
0.4002004683
0.4006386276
0.4207110757
0.4116417624
0.4072522757
0.3876455462
0.4007897596
0.4006879885
0.4253184257
0.407341609
0.4233666394
0.4213235522
0.4159146296
0.4147269864
0.4063917188
0.4091572031
0.4030039887
0.3951265971
0.4164278953
0.3983018395
0.4053176722
0.4002280022
0.4114377827
0.4273716783
0.4088822336
0.4245683064
0.4130846464
0.4069592324
0.4015644932
0.4309425893
0.4232691139
0.4363505488
0.4457203932
0.4128093171
0.4045692069
0.3901186814
0.402254974
0.4053450686
0.3792814849
0.4099288892
0.404478196
0.4037726222
0.4081778908
0.4091637279
0.4181093887
0.4173912549
0.4265382067
0.3934717414
0.4068254579
0.4210701483
0.4119938597
0.4059665592
0.3998835178
0.4036363452
0.3763595184
0.4358140953
0.4495620786
0.4670489374
0.4494334353
0.4295697794
0.4344169658
0.4247615785
0.4362455294
0.4092710561
0.3783925577
0.3620376459
0.3876667971
0.4040124652
0.4157350364
0.4220170798
0.3990520763
0.3955751607
0.415128385
0.4300436051
0.4297817085
0.3857683522
0.4024095967
0.4137076581
0.4379547466
0.4552197824
0.4332061091
0.3959974556
0.4184692642
0.4393964256
0.4454299474
0.4169534691
0.4037989437
0.4339618251
0.4355742547
0.4112603827
0.4341251556
0.4672856196
0.4348250348
0.4092582589
0.409267158
0.463764427
0.4277310051
0.4160752835
0.4213891796
0.411735963
0.393632733
0.4153965883
0.4359400625
0.4237121553
0.4183516717
0.424568787
0.480990809
0.4623454724
0.4128357818
0.4193349099
0.4200661305
0.4162866359
0.4100331015
0.4165525802
0.4465194683
0.4486305201
0.4702948064
0.4718345355
0.4668441542
0.4252701393
0.4043667166
0.3988838277
0.4034484815
0.4004007259
0.4091704164
0.4343418444
0.3961467425
0.4014168295
0.4130414024
0.4141488832
0.4028103292
0.4226444419
0.3897744253
0.3887478723
0.4126437436
0.4073565968
0.4497095955
0.4438350768
0.4272110366
0.4198449431
0.4354758948
0.4243001341
0.4210986297
0.4037816418
0.4121185367
0.3984347827
0.4140386294
0.4299124386
0.4183189347
0.4001537566
0.3992745015
0.3939900582
0.3813234923
0.3984989698
0.4306565697
0.4087021315
0.4090944322
0.4124437587
0.3952507771
0.4101716758
0.3968879399
0.4206324049
0.4027121911
0.4198170062
0.4222939976
0.4531430653
0.4255900342
0.4456924206
0.4295896873
0.4039087386
0.4296470343
0.3973704385
0.3832091143
0.3898953188