/*--------------------------------*- C++ -*----------------------------------*\
| =========                 |                                                 |
| \\      /  F ield         | OpenFOAM: The Open Source CFD Toolbox           |
|  \\    /   O peration     | Version:  2.4.0-MNF                             |
|   \\  /    A nd           | Web:      www.OpenFOAM.org                      |
|    \\/     M anipulation  |                                                 |
\*---------------------------------------------------------------------------*/
FoamFile
{
    version     2.0;
    format      ascii;
    class       volScalarField;
    location    "0.0008";
    object      p_N2;
}
// * * * * * * * * * * * * * * * * * * * * * * * * * * * * * * * * * * * * * //

dimensions      [1 -1 -2 0 0 0 0];

internalField   nonuniform List<scalar> 
5120
(
0.3055046283
0.3114746336
0.2876004362
0.2849625918
0.2973794866
0.311915745
0.334476504
0.3100688926
0.3184017299
0.3399826687
0.3523544714
0.3253417946
0.3326708559
0.3141525377
0.3168290815
0.3128556643
0.3001753752
0.3273157878
0.3256419046
0.3269911606
0.2895633568
0.315773036
0.3300481039
0.3326536593
0.3274855723
0.3279618612
0.3238782438
0.3347582326
0.3419980217
0.3335443694
0.3395434528
0.3518783906
0.3239723907
0.3134112012
0.3236582627
0.3356779343
0.3044721925
0.2903745221
0.2902256729
0.2831287236
0.2981076997
0.3138039365
0.3214888374
0.3083509429
0.2984986818
0.3077035277
0.3308326936
0.3448534775
0.32416563
0.3142117662
0.308585358
0.2869583499
0.29909038
0.3211643963
0.3182936684
0.3013842421
0.2904649284
0.2985477321
0.3161060883
0.3093644263
0.2971388278
0.2944199465
0.2844862271
0.3148039072
0.334185255
0.3476478481
0.3589674954
0.3577704621
0.3566193011
0.3391285586
0.3534515214
0.3278320343
0.3070617847
0.3078733584
0.3261691701
0.3299255698
0.3543481875
0.3496776696
0.314289671
0.297412916
0.2863740959
0.3059883867
0.3107393667
0.2822579229
0.284108134
0.3145058629
0.3253023958
0.3152841191
0.3125608962
0.3294412705
0.3185909888
0.3348278104
0.3201325253
0.3034085215
0.2830890418
0.2837727259
0.3147643916
0.3006727738
0.3045184539
0.3003909361
0.3119613676
0.2784505952
0.3027491309
0.2976820507
0.2908925085
0.268463531
0.2851179703
0.2968789985
0.3086795882
0.2905611711
0.3029875156
0.3018762819
0.3108323783
0.304540422
0.3323665587
0.3443449523
0.3105546018
0.3276192423
0.3123110983
0.3025343508
0.3271314605
0.3109894866
0.2904713945
0.2891806338
0.3058375324
0.3372958621
0.3132638922
0.3395015934
0.3401992119
0.3386576394
0.3182312458
0.3025362524
0.299201771
0.3088580646
0.3306506533
0.3395884475
0.3366362836
0.3361478257
0.3169385482
0.3061400217
0.3205947301
0.2950965011
0.306058193
0.3186219425
0.3220616676
0.3268994938
0.3494046485
0.3365935922
0.3193607144
0.3108964763
0.3231892041
0.3069893455
0.3123055602
0.3435046433
0.3344300283
0.3322891171
0.3200519397
0.3251789811
0.3373160035
0.3412191707
0.3544437841
0.3658625733
0.3645333722
0.3160986304
0.3172164413
0.315890303
0.2983019537
0.3331542882
0.3334328054
0.3241222082
0.3213312054
0.3363243128
0.307071091
0.3117672696
0.3225534027
0.3102918309
0.3129267398
0.3332309135
0.3367852756
0.3409024328
0.3126398275
0.3000969072
0.2991861775
0.2936068578
0.3156658423
0.3262598697
0.3216328036
0.3214939411
0.3368430748
0.3491721162
0.334537388
0.3028555845
0.2913419458
0.3051974035
0.3107363662
0.3040480774
0.3329726024
0.3218275949
0.3283372956
0.3521727014
0.3385901601
0.3428366941
0.3236823846
0.2952197356
0.283811478
0.3012171027
0.3040715537
0.309323585
0.3060059595
0.3042178671
0.3301932131
0.3416665694
0.3045218968
0.3033690331
0.3015557478
0.3444436823
0.3466014801
0.3497930684
0.3449763837
0.3193137947
0.3281374556
0.3385137139
0.33521749
0.3349341024
0.3224539133
0.3346048581
0.3292668115
0.3335982444
0.3284599601
0.3145679513
0.2877300443
0.2901532717
0.2927660059
0.3143972527
0.3184715668
0.3497399444
0.3573259727
0.3283257818
0.355992587
0.34559338
0.3052558813
0.3106353399
0.3273634643
0.3482608424
0.3656483646
0.3315275783
0.3412800243
0.3197208666
0.3105688383
0.3413703302
0.339588333
0.3405549279
0.3104192609
0.3175403035
0.3289985614
0.337896062
0.3171988367
0.3234654427
0.2965191589
0.2815203831
0.3294877471
0.3177997342
0.3079853853
0.3140694665
0.2979296958
0.3072434779
0.2970496049
0.2832365447
0.2843071984
0.2834935973
0.3127034075
0.3331953897
0.3347094135
0.3259203052
0.31833688
0.3332811585
0.3530178008
0.3447701631
0.3251353606
0.3381597521
0.3025161337
0.3177870275
0.3048828395
0.3065895576
0.2924722828
0.2733134565
0.299978723
0.293385197
0.2879806723
0.3228721713
0.3309870141
0.3318734476
0.3294924022
0.324178622
0.3362561963
0.3285074894
0.3215245851
0.314325631
0.2881396818
0.2977089703
0.2730021068
0.2692854779
0.2881494271
0.2877749226
0.2875978219
0.292204086
0.2974299433
0.3191597928
0.3121379025
0.290104005
0.3063954574
0.3345096511
0.3709040328
0.3837606758
0.349340398
0.3473249002
0.3274877914
0.3093337681
0.303215757
0.2934648527
0.3019401387
0.3182737864
0.3097706148
0.2985223178
0.3177296005
0.312867393
0.3328999898
0.3278785638
0.317396728
0.3084164316
0.3097436229
0.3150308049
0.333027463
0.3214863477
0.3498739466
0.3367035941
0.3435812308
0.3018690813
0.3301168698
0.2960342191
0.299091757
0.2838550747
0.3196885106
0.344579198
0.3264250483
0.3532092458
0.341886316
0.3357549519
0.3371900835
0.3216684452
0.303628901
0.2870750794
0.2918128616
0.3201012042
0.311139102
0.3135071634
0.3489171295
0.3764993908
0.3303390833
0.3221705493
0.3230116622
0.3257176568
0.3124313513
0.3007640041
0.3010950068
0.2917605232
0.300788381
0.2847769611
0.2923201578
0.2995985153
0.3079431148
0.313201863
0.3235665239
0.3055004751
0.2973613105
0.3217513121
0.3302720956
0.3172549428
0.3163851032
0.3073084036
0.318061886
0.3223220373
0.3354855579
0.3416818399
0.3303112022
0.3234523802
0.3256900304
0.3412126224
0.3410651392
0.355054205
0.3334295855
0.3424779092
0.3589548842
0.3637502366
0.3387976655
0.3229617551
0.2889776583
0.2891167115
0.3042043147
0.3047211383
0.3358452298
0.3356701398
0.342345952
0.3585420354
0.3627900076
0.3677374507
0.346284579
0.3368760958
0.3314616655
0.3190463931
0.3206754351
0.3136895554
0.3043475473
0.2903295621
0.303193684
0.3111299807
0.3134960849
0.3027027004
0.3210293088
0.3291862827
0.3517835246
0.3794868424
0.370764512
0.3835550893
0.3537075592
0.332917013
0.2977741449
0.2795105986
0.2874463122
0.2959193043
0.2871924173
0.3213282567
0.3342452872
0.3733581048
0.3618556223
0.3346620972
0.3282533501
0.328063297
0.3150723101
0.3284788109
0.3252458086
0.333463378
0.3424472673
0.3424327132
0.3284198323
0.3293446953
0.3334841892
0.3045950493
0.2901696551
0.3037255625
0.3352566749
0.3349614911
0.3353876747
0.3258882865
0.3261445102
0.3253956901
0.350186535
0.3269930984
0.3229368756
0.3198942647
0.3369299062
0.3548244625
0.3601349162
0.3658739189
0.340988016
0.3181845029
0.3291236755
0.3613124045
0.3595590743
0.3649319309
0.3770730511
0.3631436941
0.3643009979
0.3516093021
0.3372107091
0.3504121871
0.3472878367
0.3341505586
0.3635818043
0.3611954175
0.343524902
0.3284878092
0.3266701043
0.3411144435
0.3347983018
0.3607489599
0.3585534736
0.3257028683
0.3066411148
0.3029399259
0.3235650867
0.3447403497
0.3645451081
0.383284175
0.3612711151
0.355375013
0.35617636
0.355068189
0.369468771
0.3685928237
0.3229560161
0.3353761053
0.3377238633
0.3583585901
0.3230879264
0.3395092174
0.3520118772
0.3623252862
0.3333755507
0.3040886555
0.2916472144
0.3129301187
0.2911667907
0.2960120719
0.3101861456
0.309251763
0.3009004912
0.2992218074
0.3291798533
0.3109918863
0.3082220518
0.3115808894
0.3234533966
0.3137859563
0.3261072819
0.3037481796
0.3347680035
0.3473758058
0.3450496822
0.33741554
0.3133253137
0.2871358731
0.3020295138
0.3249449596
0.2974237681
0.3080054441
0.3142237338
0.313746586
0.3035943766
0.3219217492
0.3251237762
0.3145117586
0.297349607
0.3144478848
0.3182314369
0.3054404391
0.3183648464
0.331175437
0.3261690642
0.3281949135
0.311258143
0.3310011421
0.3308400773
0.3090332499
0.3064691279
0.2952385488
0.3103199116
0.2949552452
0.2997170919
0.3008815931
0.3383661835
0.3351759912
0.3243878941
0.3267032305
0.3306761625
0.3662410626
0.3317108662
0.3222190999
0.3252737022
0.3587219353
0.3495533379
0.3412029921
0.334565511
0.3245628472
0.3215257968
0.3115168354
0.3039902595
0.3075744028
0.3055372453
0.3226898817
0.3044211789
0.3051224698
0.3177549888
0.326953458
0.3262078564
0.288371404
0.3073180813
0.3207843443
0.3293688432
0.3302862406
0.3172161367
0.3336110018
0.3469038327
0.375698385
0.3529165413
0.303352228
0.30272362
0.3255891039
0.3415960063
0.3105261672
0.3032883734
0.2794240613
0.268784448
0.281472705
0.3072325061
0.3113532362
0.2833363121
0.2760898401
0.2774849668
0.2855601431
0.2831491381
0.3050843282
0.2903049312
0.2884519758
0.3006682924
0.3326395135
0.3494596864
0.3116926933
0.3075166668
0.3115431853
0.3191464221
0.3265849218
0.3308210878
0.338638924
0.3054378797
0.292369364
0.3037559395
0.3190943402
0.3082939963
0.310578087
0.3052078268
0.293311524
0.2897136034
0.27792607
0.2782720901
0.2803982045
0.3003561523
0.2938816812
0.2771500556
0.3039786269
0.3275801217
0.330822021
0.3366226517
0.3193141589
0.3338228731
0.3491749806
0.3379270158
0.3280207538
0.2989918711
0.3000823617
0.2923229886
0.3187177846
0.3129571198
0.2979498572
0.2953504757
0.2959859057
0.3046966607
0.3180416211
0.3147053512
0.3152700798
0.3373109521
0.3182297621
0.3177434965
0.3122042459
0.3003254053
0.3299686765
0.329819759
0.3296109541
0.3047665986
0.3006306706
0.3142456397
0.3311384326
0.3026634322
0.2984162267
0.3109394899
0.3090377471
0.3052818576
0.3105619757
0.3183244007
0.3325110415
0.3160811967
0.3403670131
0.3425040431
0.3381005561
0.3276749978
0.3370677756
0.3196344838
0.3086602327
0.2778932164
0.2991625601
0.2943913654
0.2968954029
0.2834780744
0.3248838439
0.3355019573
0.3324331275
0.3245013123
0.3169333285
0.3140689873
0.3178533843
0.3368105344
0.324675856
0.2951055011
0.2905656884
0.3102698088
0.3127376985
0.3010041882
0.2951692272
0.3072427529
0.2939578721
0.3159086459
0.3117899569
0.3166284282
0.323545591
0.3132795385
0.3036703904
0.3209354625
0.3190343327
0.3292339877
0.332888555
0.3461215256
0.3290364402
0.2945845859
0.3103105878
0.3229224918
0.310941399
0.3271521725
0.3182251804
0.2927595629
0.306285518
0.3007646039
0.300934261
0.2930390958
0.2899363358
0.3085969262
0.3118259256
0.3370467222
0.3562292936
0.3674305369
0.3517151396
0.343448045
0.3120896152
0.327639617
0.3222896637
0.3083420624
0.3014170163
0.3126436397
0.3170245132
0.3247162692
0.3142070159
0.3290030884
0.3212505042
0.3242302417
0.3343865336
0.323921339
0.3449691188
0.3447882879
0.3254754687
0.3386683641
0.3806308121
0.3425135576
0.3472073716
0.328777855
0.3163099519
0.3261591187
0.3152705892
0.3337819385
0.3188645453
0.3302087864
0.3210735151
0.3114020387
0.3264075598
0.3113499178
0.3062069835
0.3268753522
0.3082513906
0.3197477931
0.3324533653
0.322374657
0.3412495876
0.3952426416
0.3931081966
0.3729522721
0.3498927818
0.3300506088
0.311101944
0.3265585459
0.3315371967
0.3315526412
0.344662291
0.3195361078
0.3295175294
0.3073041132
0.3088824021
0.3329452128
0.3307784231
0.309531111
0.3219837395
0.3323175933
0.3401111323
0.312918473
0.3164435041
0.3072513488
0.3327874787
0.3412801943
0.3458985463
0.3346323407
0.3426943064
0.3271537506
0.3114333909
0.3230951775
0.3009497234
0.325209997
0.3455412662
0.3233567809
0.327543183
0.3390762865
0.3265437077
0.3346502724
0.3317003497
0.3443392028
0.330575354
0.3294076171
0.3419404219
0.3520952974
0.3372350289
0.2965998439
0.3067867813
0.3184825895
0.3271151598
0.3212607975
0.314808785
0.3197857722
0.2913031403
0.2959601152
0.3191569026
0.3182231914
0.3357129207
0.3288067244
0.326461547
0.3340701248
0.3005048894
0.3091710606
0.3315630846
0.3505238562
0.3534472082
0.3145768468
0.3008846923
0.3074899725
0.3398660936
0.3299905708
0.3410336096
0.3441698804
0.358098279
0.3375333247
0.3582810853
0.350199312
0.3186704546
0.3246362233
0.3410504425
0.2973403303
0.3519303931
0.3207780114
0.3133854215
0.3101494001
0.3397455916
0.3634827035
0.3668041586
0.3489990613
0.335911028
0.3321579603
0.3250240189
0.3154076426
0.2973805481
0.3166095453
0.2790963978
0.2842167157
0.2750286385
0.3032495765
0.3065071236
0.3411797397
0.3286535317
0.3027925192
0.3183327966
0.3082610372
0.3101965246
0.3252182204
0.3161336006
0.3135939713
0.3229822441
0.3405384936
0.3509792776
0.35895899
0.3713982544
0.3333090505
0.3303260364
0.309178992
0.3063295426
0.3070415295
0.3384459173
0.2848540037
0.2929207626
0.3126350674
0.3106490723
0.3014975668
0.3066906732
0.3252185515
0.3443703999
0.3325827881
0.3004496357
0.3406395654
0.3443884943
0.3332134251
0.3173638908
0.3391996145
0.3517814937
0.3344795178
0.3369479074
0.3208620666
0.2905852025
0.3186957946
0.3238862769
0.3095227452
0.3081604957
0.3009148275
0.3307647286
0.3173647193
0.299031742
0.2905819127
0.3111399696
0.3430242232
0.3152217222
0.2979913939
0.2977650112
0.2796363261
0.291825308
0.2862340409
0.2854210051
0.3103814724
0.3188061265
0.2987660232
0.3074385595
0.3144327143
0.3242384945
0.3258735809
0.316989429
0.3153992044
0.3134668829
0.2992386368
0.2959634994
0.2851694431
0.2731561106
0.254865286
0.2738704388
0.2758589785
0.2953900261
0.2931295269
0.3245584059
0.344879489
0.3357078075
0.329021701
0.3307306031
0.3308037427
0.3451433328
0.334491541
0.3375581816
0.3302220522
0.3349178795
0.3563811155
0.3736929744
0.3626054901
0.3410079191
0.3607284149
0.3330947171
0.3132854862
0.3253500179
0.3285727503
0.3107317534
0.3015539224
0.3141955946
0.3398791997
0.3414628446
0.3314943827
0.315095683
0.3038909911
0.2976366036
0.3139836212
0.3299264875
0.354295588
0.3561254242
0.331567627
0.3323204891
0.3295743294
0.3447507313
0.3167937871
0.2959527936
0.2986670662
0.3069805023
0.3106947309
0.339389783
0.3330429033
0.3471631602
0.3440698714
0.3262780138
0.3133630648
0.2933539481
0.3148245669
0.3300910547
0.3170604993
0.3329339188
0.3485927845
0.3261161852
0.312791482
0.3077698042
0.3296296451
0.3408594805
0.347136455
0.332794746
0.3386229241
0.3403675398
0.3231252229
0.3379059167
0.3480735493
0.3466161449
0.3197985018
0.2965271682
0.3131500736
0.3116998808
0.3408708069
0.3517710641
0.3315067451
0.3466836871
0.3355446474
0.3251166695
0.3232859048
0.3543876318
0.3533115151
0.3451915849
0.3239292294
0.3103391995
0.3299143329
0.310457115
0.3424660551
0.3548586401
0.3502299649
0.3265527217
0.3133636871
0.3009861555
0.3154076719
0.3055302228
0.3233633773
0.3153424915
0.3370312266
0.3588537781
0.3428722142
0.319914092
0.3025446637
0.2834034342
0.3222073758
0.3325934343
0.3336905677
0.3344877809
0.3248827966
0.3340526147
0.3535244978
0.353572178
0.313840905
0.3355006624
0.3297749222
0.3440304018
0.3450808718
0.3510829938
0.3510883859
0.3383174691
0.3489350236
0.3364690923
0.335051992
0.3739030174
0.3535288623
0.330283419
0.3093609044
0.3277973636
0.316856194
0.305831343
0.3127436906
0.3271812877
0.311147572
0.3180025876
0.3224400236
0.3242464263
0.3084200774
0.2942991171
0.3257849197
0.3072503378
0.2841420381
0.3072469832
0.323467177
0.3370222158
0.3318428999
0.3303862615
0.3092008942
0.2975760631
0.2924368722
0.3003770395
0.3379392374
0.3381591043
0.3484764359
0.3213886582
0.300849501
0.3093439546
0.3156545464
0.2996009952
0.3024739738
0.298674993
0.2924023708
0.2845689067
0.2922899456
0.2938623927
0.3000119603
0.3350086746
0.3306160196
0.330501963
0.3480669262
0.3141800438
0.2853780065
0.3053819913
0.2920054576
0.2737883363
0.2997316081
0.3265438843
0.3265573428
0.3218072657
0.3138872896
0.3113327566
0.3043593957
0.326108117
0.3391932036
0.3608888616
0.3409308542
0.3309452329
0.3017477844
0.2969016596
0.3141191276
0.3079067434
0.3187921116
0.310472505
0.3300419735
0.3387495435
0.3109324393
0.3036589095
0.2887238907
0.2775943843
0.2867157585
0.2799471568
0.3153521559
0.3078930946
0.3192006394
0.3160934568
0.3250246171
0.3101247254
0.3303946055
0.345852447
0.3666432638
0.330358763
0.328748343
0.3265962324
0.3036195486
0.2920090696
0.297850508
0.2842906275
0.3063120223
0.312124912
0.323093023
0.3187849089
0.3084749752
0.3372065434
0.3469634894
0.3300353009
0.3261828963
0.3164559068
0.3044929024
0.3154528867
0.3296579004
0.3446962754
0.3344634156
0.308656543
0.3242715539
0.3230064406
0.3186886607
0.3408785895
0.3651397478
0.3510882382
0.3474595427
0.3403665011
0.3369037566
0.3426488737
0.3156291776
0.30414438
0.29450132
0.2826748931
0.29382978
0.2939486049
0.3154334727
0.337082845
0.3541015144
0.3235791114
0.2999352107
0.29115187
0.3174598174
0.33694626
0.3111600137
0.3344382157
0.3089992418
0.3076403645
0.3001583938
0.2825486821
0.288122869
0.32393555
0.3211645898
0.3136173628
0.289959909
0.2963696317
0.3035765113
0.3075323643
0.3111732698
0.3361277014
0.370826396
0.3647924019
0.3393621533
0.3453655656
0.3135231439
0.3053448244
0.3050963422
0.3001870152
0.322004165
0.3098003164
0.304730114
0.2899240603
0.2927623364
0.2914351594
0.3291872171
0.3431396261
0.3193915117
0.2780336213
0.2759453609
0.2891444349
0.2686821713
0.2708082273
0.2945579002
0.278048713
0.295449174
0.3022462031
0.29996201
0.3075500168
0.33520185
0.3262802478
0.3222167387
0.3212547223
0.326530336
0.3309926017
0.3303710669
0.322017011
0.3427542482
0.3446365899
0.3358375817
0.3197697263
0.3263251626
0.3447566035
0.3550222048
0.3641376498
0.3337018907
0.2959429029
0.3043448736
0.3296379002
0.3218609817
0.3258541779
0.3327126388
0.3013220073
0.3146965467
0.3065883122
0.3500715513
0.3435622984
0.3542661597
0.3471228109
0.3439937708
0.3189787066
0.3226655051
0.3182133256
0.3048948969
0.3422214156
0.3387502192
0.3024774386
0.2986347387
0.3240487077
0.3079211238
0.3015306209
0.3139974366
0.3200870412
0.3428769494
0.3355649311
0.3434750164
0.3412206206
0.3306109652
0.3558858663
0.3710583255
0.3667442233
0.356449236
0.3634989746
0.3526002521
0.329878353
0.320870147
0.3320835632
0.3451927143
0.3172650221
0.3219543145
0.3323531871
0.3515461222
0.3320081239
0.3349849349
0.3378762264
0.3013633816
0.2967156354
0.2874664547
0.3362145608
0.3539353799
0.3365622825
0.3401306008
0.321946107
0.3455393876
0.3255335011
0.2904222637
0.3307612481
0.3149626497
0.3541448063
0.3670250764
0.3611908561
0.3295828238
0.3096824546
0.3249119224
0.309279033
0.3289857102
0.3110934847
0.2842251537
0.2745024027
0.2954995086
0.3244204506
0.3317074128
0.3434271368
0.3212960648
0.3432640679
0.3337784469
0.3214749904
0.3436142376
0.3450617453
0.369783944
0.3563566551
0.3506634717
0.363807298
0.3601364211
0.3250680012
0.3465287826
0.3205560661
0.2949251425
0.2857212468
0.2900715897
0.316808026
0.3194967729
0.3270295889
0.3061308644
0.3056819029
0.3219165964
0.3489979604
0.3452777052
0.348639033
0.3426647621
0.3328531152
0.3583100406
0.3473541863
0.3444537278
0.356467974
0.3042491076
0.3238036521
0.3383085183
0.3063770447
0.2832675203
0.3147160399
0.3746590225
0.3799926452
0.3564495838
0.3511003902
0.3271186181
0.307178373
0.3167189733
0.3410686952
0.3343995227
0.3175255029
0.3278239248
0.3072870894
0.3022054062
0.3065780181
0.3388996336
0.3233266826
0.3133943279
0.3435037023
0.3170130625
0.3326604066
0.3466410472
0.3393471325
0.3410338721
0.34189369
0.3540171053
0.315852153
0.3328025731
0.3357424825
0.3292057995
0.3307550986
0.3096659186
0.3025020488
0.3119471849
0.3219088353
0.3013178813
0.3192745977
0.3406252939
0.343546746
0.3515036736
0.3733570917
0.3561949254
0.3329912739
0.3270856245
0.330121311
0.324218168
0.3307974813
0.3281224453
0.3361701032
0.3118218802
0.2761372947
0.2712829787
0.3118549446
0.2839827616
0.3048923854
0.3378262108
0.3325430454
0.3360479419
0.3451530581
0.3614715078
0.3160566434
0.3080961641
0.3306993277
0.3455008655
0.3445120811
0.3223775602
0.3177190784
0.3225166531
0.3090274934
0.3437406141
0.3435773151
0.3365866868
0.306270582
0.307350411
0.312343879
0.3390160383
0.3542061875
0.2982867891
0.3026908141
0.3224446963
0.3437652519
0.3337759254
0.3401727812
0.3269367989
0.3210254922
0.3259356594
0.3475163093
0.3215644745
0.3403266677
0.3381906365
0.3419797326
0.3511166919
0.358030154
0.3685545488
0.3672719728
0.3165033596
0.302655086
0.2925576041
0.317376691
0.3132672835
0.3075308778
0.2930482378
0.309114721
0.3336729976
0.2987095686
0.3020557006
0.3153918188
0.3564978897
0.3885239115
0.3536856467
0.3141535673
0.2920657274
0.3136004177
0.3304828584
0.3234188023
0.3141009874
0.2861196309
0.2939423992
0.2868012649
0.3173663402
0.3354427
0.3273212327
0.3500678462
0.3360279484
0.3383205183
0.3520314126
0.3441379374
0.3379872755
0.3060228618
0.3047440394
0.2979488587
0.308487416
0.2807525264
0.2974698376
0.3025981609
0.3105023551
0.340725232
0.3367862479
0.2920913667
0.2901632072
0.3115778033
0.3308038729
0.3408431652
0.3611402262
0.3456332287
0.3384529186
0.3449369827
0.3375809833
0.3271297594
0.316484087
0.3204764773
0.3024517674
0.3053201201
0.2929449129
0.3052891697
0.3601230641
0.3330180938
0.3360478849
0.3464634
0.3277724835
0.3588467597
0.3545221738
0.3548980273
0.3394515955
0.3245373758
0.3081412086
0.3240961747
0.2934388968
0.3010563243
0.3066515102
0.3236396028
0.3323760754
0.3558868713
0.3571647343
0.3590167238
0.304854812
0.2984537584
0.3312961234
0.3242364874
0.3410188115
0.3362216524
0.3239401327
0.2919527579
0.2923573664
0.3124899723
0.3364885116
0.3270248866
0.3497401333
0.3601997287
0.3356160641
0.3347927419
0.3216805344
0.3182206894
0.3285312224
0.3159347582
0.3094260291
0.3121499861
0.3137808909
0.3294247473
0.3464430252
0.3680953761
0.3749687181
0.3355679338
0.2904056133
0.2830392868
0.3018806733
0.3454910347
0.3387881412
0.3357775567
0.3333329269
0.3290192512
0.3441369577
0.3372850919
0.3089716201
0.2968310503
0.3309790794
0.307574457
0.3080908481
0.2866673833
0.2955635852
0.2863951118
0.3135127694
0.3425209288
0.3535505728
0.3534200695
0.3386214339
0.3420337385
0.3257951312
0.3013255315
0.300314362
0.2722828782
0.2949886867
0.3183582476
0.3280036443
0.3526390413
0.3238401338
0.3253844263
0.3324844298
0.3287097371
0.3247068144
0.3122185449
0.3145808287
0.3352457707
0.3021773437
0.3238676628
0.3660559801
0.3487989374
0.3259327845
0.3384798995
0.3517810441
0.3189435899
0.3112577738
0.3192825849
0.3221824054
0.3213176014
0.3221685752
0.3018814754
0.3017309247
0.2824930244
0.2906473145
0.3109982334
0.3145937131
0.3039616769
0.2993344022
0.3193428201
0.3424575781
0.3471155573
0.3526833463
0.332704952
0.3147934629
0.2889085713
0.2897083538
0.2984365457
0.3242014798
0.3256260887
0.3042399761
0.3334289733
0.3354036177
0.320051294
0.2911986851
0.2823594279
0.2897668208
0.2830874734
0.3251114117
0.3230092129
0.3214843551
0.3270635849
0.3247602408
0.3350130191
0.3441736294
0.3429965288
0.3506944627
0.3172165522
0.2979281992
0.3081775325
0.2905038338
0.315887652
0.3380760284
0.3591275495
0.3635100961
0.3530055375
0.3596602946
0.3551465065
0.3501381565
0.3344242626
0.342591236
0.3478444659
0.3595740818
0.3534551458
0.3167487647
0.3404205343
0.3115205671
0.3121555699
0.3031173044
0.2995307514
0.3318867042
0.3165066923
0.3198507327
0.3209518879
0.3308733459
0.3070987938
0.2967176284
0.3136945547
0.3459819954
0.343196079
0.3198264539
0.3006909369
0.2905451006
0.2922179124
0.2997574515
0.2839249708
0.3062984477
0.3087656802
0.2960441189
0.2955510251
0.2994438698
0.3100008113
0.3061341992
0.306170514
0.3236906767
0.3355209283
0.3394441492
0.3322885835
0.3324384272
0.3451806995
0.3759184593
0.3787217148
0.3517289288
0.3387118231
0.3348102055
0.367236383
0.3622029451
0.3596411127
0.3606024281
0.3245412502
0.3393916942
0.3423663907
0.3551884107
0.3657010003
0.343024766
0.3314901394
0.3149252086
0.3223777474
0.3160389998
0.3296735813
0.3283360495
0.3376821786
0.3503596602
0.3347365502
0.3087458317
0.3074969756
0.319081644
0.3015109592
0.3276447204
0.3250742878
0.3451171739
0.3442304287
0.3489258728
0.3437146674
0.339984111
0.3183280983
0.3351300071
0.3348112476
0.3417411757
0.3326049313
0.3064090722
0.3130055064
0.3161433765
0.2899059524
0.2897085867
0.3057589392
0.3058733946
0.3047998323
0.3243917305
0.3256774496
0.3038895034
0.3032259077
0.2858652454
0.2673531712
0.3048705612
0.3129252377
0.3089414469
0.304795597
0.2948346431
0.2955555627
0.3105815824
0.3139732348
0.3143360005
0.3370938523
0.3211003671
0.3330125177
0.3597229243
0.3429304785
0.3189435262
0.298407726
0.3177958865
0.308561443
0.3269412324
0.3370946093
0.3001642927
0.3072067328
0.3136923585
0.307181919
0.3063927872
0.3159969287
0.3199575207
0.3008104065
0.3160818877
0.3044440347
0.2997205823
0.3005377747
0.2939943043
0.3005419678
0.3075536669
0.3166731009
0.3093923076
0.312904652
0.3279696514
0.3324939642
0.3377373669
0.3546096058
0.3635844754
0.3546023256
0.3271719139
0.327515884
0.3223442063
0.3022807239
0.321174211
0.3163864969
0.3488105789
0.3300920184
0.3179398635
0.2958489763
0.3011044763
0.3022795909
0.3486374869
0.3531918348
0.3444728064
0.3191997456
0.3135020248
0.3014764681
0.3180941226
0.3286529652
0.299184231
0.3144920484
0.323028307
0.331426012
0.3013481593
0.2808581657
0.2888129236
0.2888195534
0.2745478819
0.3026684841
0.3391249428
0.3505395144
0.2927265594
0.2977230171
0.3048149896
0.3202217741
0.3278791059
0.3199427401
0.3086901095
0.2988769911
0.3391173413
0.3560386634
0.3460163003
0.3176014616
0.334040645
0.3275988115
0.3015742562
0.3142258902
0.3221804685
0.3071975279
0.3083706667
0.3104782292
0.2810080167
0.2829685535
0.2944999152
0.3059441182
0.3010817707
0.2941916011
0.2915790138
0.3021667362
0.3037335977
0.3007154565
0.3080066539
0.3055118392
0.3108871182
0.3362295301
0.3349049054
0.3451642314
0.3325300197
0.3179020725
0.3194790775
0.3005520161
0.3204335945
0.3020352794
0.3223405001
0.3302933771
0.3523739957
0.3339303452
0.3191973409
0.3036930616
0.2995526377
0.3024771412
0.2921301128
0.309231155
0.3172779915
0.3086403055
0.2998462858
0.3234035528
0.3381661088
0.343109398
0.3390184168
0.3205325453
0.2712253937
0.2718170289
0.2907733833
0.3048631639
0.294766112
0.3100710279
0.3111593447
0.3103431355
0.3030288923
0.3011558114
0.2973143247
0.3002278132
0.2843779531
0.3139935301
0.3491076357
0.3676265113
0.344734488
0.3260899794
0.3006218047
0.2701624167
0.349369532
0.343673966
0.3153762836
0.3110744772
0.3379304714
0.3102695305
0.2988455427
0.3159263142
0.33210741
0.325346476
0.3045167138
0.3225431796
0.3216933247
0.3123692623
0.2944156967
0.3075684877
0.3236571609
0.3160308873
0.320291419
0.3330787612
0.3201268494
0.3372656227
0.3636731708
0.3607320458
0.3546707353
0.3603775987
0.3490330425
0.3495155985
0.2909283446
0.2855889544
0.2717015698
0.2820227441
0.3055444534
0.2867981246
0.3239697451
0.3145090244
0.3174937899
0.3497868222
0.3294770394
0.3218026175
0.3381567509
0.3277233222
0.330891691
0.3195319067
0.3403350891
0.3195045257
0.3052420145
0.3050503556
0.3311163834
0.3444448859
0.3519144588
0.3273218407
0.2964700208
0.297995574
0.2906031389
0.2897104428
0.2967788663
0.3111513283
0.313557103
0.3292725633
0.3373920079
0.3240850229
0.3159504839
0.3077369148
0.3065402235
0.3313782511
0.3477158715
0.3434599432
0.3214046091
0.3136896015
0.328146122
0.3418461076
0.3446105962
0.3446296756
0.3342195977
0.3175787061
0.2965111556
0.301181814
0.3086037022
0.316283773
0.3100860543
0.3316674787
0.3487194698
0.3473321786
0.3474449479
0.3231816313
0.3194904137
0.3546191708
0.3321162288
0.3364144303
0.3348574826
0.3232612739
0.3057255969
0.2984502127
0.3172406738
0.3286783876
0.3323489875
0.3528579306
0.3480099494
0.345105522
0.3378524988
0.358885235
0.3544468204
0.3728059965
0.337494928
0.3081317517
0.32400848
0.321966065
0.3456664467
0.3473285252
0.3346023927
0.3089829052
0.3258416012
0.3536854069
0.3608065262
0.3497832044
0.3364745313
0.331699663
0.3380328669
0.3401817461
0.311016036
0.3023089216
0.3145965797
0.3191272182
0.321215288
0.318817472
0.3144771613
0.3170090686
0.2938980695
0.3364833836
0.3675643746
0.3661198478
0.3446077009
0.340480228
0.3228320779
0.3355215282
0.3338795216
0.3421947286
0.3350323721
0.3222462816
0.3278473177
0.3220241402
0.3405473072
0.3564368708
0.3510331662
0.3124238172
0.3082296679
0.3331175085
0.3261380252
0.3112792312
0.2914322199
0.2982693075
0.2991756167
0.3307074024
0.3251163395
0.3231258578
0.314826488
0.3090426479
0.3087286215
0.3032227926
0.2916232374
0.2968113791
0.2941587356
0.3029962114
0.2956950359
0.304445129
0.3121367527
0.3241253015
0.3172047875
0.3106542144
0.3211772943
0.3084759708
0.3096330117
0.3095725091
0.3403447983
0.3424704085
0.3480733711
0.3610687396
0.3361363796
0.3093897302
0.3017646074
0.3253750224
0.3238257172
0.3066191499
0.3276198496
0.318749688
0.3139024755
0.315868082
0.3235190205
0.3260439662
0.3271427955
0.3358664212
0.3057785715
0.3163917132
0.3079003471
0.3067620932
0.3139457075
0.3091352214
0.3117377431
0.2927772998
0.3638291629
0.3516030852
0.3466448656
0.3365116155
0.3219900292
0.3228273615
0.3138993368
0.338398784
0.3218042778
0.2972127756
0.294259898
0.3108127822
0.3133853278
0.3196277365
0.3194805483
0.3100371964
0.3154479845
0.3300435034
0.3351821554
0.3473652135
0.2869638361
0.3058216122
0.3167934681
0.3332858484
0.3649698257
0.353049429
0.3213740604
0.3186451547
0.3425793572
0.335551317
0.3164764741
0.3085832341
0.326195971
0.3225631786
0.3192186653
0.3370184876
0.3543230957
0.3062677342
0.3013777405
0.3001271957
0.3561980818
0.3203353395
0.3286229714
0.3248465884
0.3112558923
0.3082511478
0.3375011161
0.3613014246
0.342148968
0.3335555005
0.3373339424
0.3890432203
0.3762335276
0.3336766089
0.3443065882
0.3383135895
0.3248717504
0.3352177585
0.3275997597
0.3419302021
0.354635948
0.3789704186
0.3825152376
0.3678872155
0.3256130715
0.3122699369
0.3143385324
0.3205224499
0.3160865875
0.3068364925
0.3236940021
0.3043776219
0.3080493359
0.3240198693
0.3328169107
0.3243173315
0.3447997133
0.3027099709
0.3091107933
0.3185835586
0.3115154965
0.3454549211
0.3267132805
0.3317529077
0.3280862733
0.335514326
0.3332318008
0.3404173689
0.3329061036
0.3350658576
0.3196389829
0.3256837633
0.3449497898
0.3261310292
0.3036470122
0.3100537827
0.3040194748
0.3105737385
0.3259749503
0.3398990691
0.3110542166
0.3191364867
0.3148191291
0.2956774468
0.312575577
0.3043022972
0.3241076316
0.3101426012
0.3314338635
0.3390242984
0.3656145286
0.3360860462
0.3427689792
0.3313405681
0.3099641935
0.3300836899
0.3082784255
0.2969615254
0.3064306168
0.3275080554
0.3045513217
0.3184930624