/*--------------------------------*- C++ -*----------------------------------*\
| =========                 |                                                 |
| \\      /  F ield         | OpenFOAM: The Open Source CFD Toolbox           |
|  \\    /   O peration     | Version:  2.4.0-MNF                             |
|   \\  /    A nd           | Web:      www.OpenFOAM.org                      |
|    \\/     M anipulation  |                                                 |
\*---------------------------------------------------------------------------*/
FoamFile
{
    version     2.0;
    format      ascii;
    class       volScalarField;
    location    "0.0008";
    object      p_O2;
}
// * * * * * * * * * * * * * * * * * * * * * * * * * * * * * * * * * * * * * //

dimensions      [1 -1 -2 0 0 0 0];

internalField   nonuniform List<scalar> 
5120
(
0.08895971076
0.08674273482
0.07804286965
0.07776973869
0.07365814204
0.08832329003
0.08140803743
0.09221246861
0.08588084949
0.06973742761
0.07466064073
0.08720689763
0.1014556132
0.08510696241
0.09148296742
0.1077478945
0.1074846899
0.1084467274
0.08209330693
0.08049884458
0.08569705524
0.08802117835
0.08727577837
0.08958671474
0.09496557838
0.100181698
0.1000848895
0.1021537054
0.1001878354
0.1020852675
0.0873204952
0.0819815314
0.08574503409
0.09093203351
0.07743518113
0.08286756024
0.07208668914
0.07160867954
0.08921454909
0.09191988444
0.07506375323
0.07568204912
0.07655806623
0.07200215818
0.08027779173
0.09487586371
0.09053652441
0.07973960264
0.07636589826
0.0805609841
0.09570495935
0.09064578841
0.07667464927
0.08108730617
0.09646733631
0.08563679803
0.08645452977
0.08597544791
0.07865445185
0.07602271393
0.0868504211
0.08945876404
0.09325278395
0.09845284088
0.1033268701
0.076221693
0.06685432016
0.08265145217
0.09281365071
0.1008707798
0.09710744482
0.09928396117
0.096247261
0.115471354
0.1077794641
0.09251762134
0.09042033521
0.08652926123
0.09700700296
0.0895560853
0.1078084934
0.1048114361
0.09052812751
0.09000525778
0.09873330341
0.0980585226
0.09834873041
0.08926652051
0.09380301075
0.1128264615
0.1149955265
0.10436305
0.1043107259
0.08414456012
0.07450538233
0.08487645631
0.0826327931
0.09255047428
0.09694689457
0.1068372761
0.1088000086
0.1084227488
0.09725096286
0.09495146598
0.1025645528
0.1074583909
0.0965123985
0.0943021792
0.08750581961
0.08608717827
0.09209060539
0.1023247957
0.09146793951
0.09426515249
0.09320501859
0.09417039604
0.102397682
0.0926132765
0.08551751832
0.0973327291
0.0925463295
0.08806794256
0.09573384298
0.1059212479
0.09934804516
0.1060498985
0.1043114585
0.09759481504
0.1018344164
0.0971723595
0.08958892706
0.07630380383
0.08599807803
0.0993801862
0.1154006582
0.1132393373
0.09961121104
0.09402696419
0.09005184458
0.09140712401
0.07724022828
0.07929314569
0.07708892339
0.08351213152
0.0858303316
0.08848892125
0.1008464777
0.1044578944
0.09503958645
0.08220296594
0.0800547734
0.09007688121
0.108575889
0.09555439475
0.08096563848
0.07805207344
0.08323423205
0.07600524442
0.08340808932
0.0775525363
0.1055016496
0.09532877815
0.08393394232
0.08320000728
0.07967164538
0.08186727196
0.08987846814
0.09252628096
0.09568210512
0.09058713777
0.0912544141
0.09368129724
0.1099174411
0.1222575628
0.1176049295
0.1062621049
0.1067102104
0.09927961511
0.08784817071
0.1027440768
0.09026346074
0.08662352931
0.08886947395
0.08443927011
0.08359815656
0.08249117348
0.08090251869
0.08223638989
0.09284008274
0.09189266944
0.09086505284
0.09291293483
0.08149000603
0.07293779824
0.07437102495
0.09763559251
0.08918277564
0.09218435849
0.1025842263
0.09572196157
0.1031933908
0.09837031719
0.0886591706
0.09142155446
0.0964313562
0.09776826842
0.1031615228
0.09865387468
0.08827393785
0.078889384
0.08130726771
0.1058240428
0.1063192757
0.1059587533
0.09263110084
0.09014997007
0.09381688649
0.09791985521
0.08330926388
0.09906833274
0.09094428178
0.09827312206
0.08732374866
0.09610935671
0.089829015
0.1020526875
0.09397356022
0.08981434838
0.1031167808
0.09627776405
0.1008993652
0.09419534245
0.08431786491
0.08964319211
0.107298422
0.0842155066
0.08283769542
0.08391852318
0.08809515544
0.08469831778
0.08600126317
0.08609598181
0.08699672347
0.08402038729
0.07616626404
0.07615203559
0.08285667619
0.0970470594
0.1026398544
0.1141906344
0.1129269973
0.1026282403
0.1004756486
0.1073975246
0.09791076661
0.1037052966
0.1071326516
0.1079524218
0.1070098183
0.08663651143
0.07000090036
0.08163939205
0.08278532124
0.08677329227
0.09481141355
0.1125299919
0.1049484761
0.08551523141
0.08701192738
0.08779376459
0.09785972366
0.1016990991
0.09981202539
0.1044755417
0.09255364808
0.0941545506
0.1034568371
0.1018017182
0.08424431562
0.07527014731
0.08265326155
0.09389123923
0.1068542499
0.1107582559
0.1024565035
0.09019730966
0.08411723933
0.08422666676
0.09089383356
0.09066666421
0.09527905844
0.09599703509
0.09466834653
0.1108488576
0.1146320395
0.1013843459
0.1064204093
0.1113764531
0.09146353318
0.09008894779
0.09849603488
0.07403911623
0.0738698483
0.07751686175
0.08052069564
0.0796402172
0.08745978923
0.09217632886
0.0847348485
0.0887467098
0.07339753329
0.08586418463
0.08769797299
0.08294972045
0.1019403971
0.08905262194
0.08373684355
0.08265430263
0.105544135
0.1051456926
0.09748562319
0.096728528
0.09242414021
0.08659111687
0.09458400492
0.09411231417
0.08779812099
0.09189381276
0.09936030428
0.09701140641
0.08617750546
0.08373542458
0.08767021676
0.08900011724
0.09408616234
0.09390897806
0.09746506401
0.09836769669
0.1040140816
0.1106352114
0.08898613998
0.09249992204
0.1058548192
0.107201681
0.1003839657
0.1078187441
0.108538496
0.1097270824
0.09857002519
0.1032375909
0.1073429535
0.09635575653
0.0938901898
0.09195719135
0.1008400463
0.09675189416
0.08500786576
0.07816623596
0.08080124639
0.08171776367
0.07757221111
0.0853109797
0.0759809803
0.08608968127
0.09315306608
0.08512578849
0.08669000889
0.0888095066
0.08037898074
0.07367670709
0.08369064464
0.09036563505
0.09512049387
0.08927616935
0.07439239664
0.08051480839
0.08527360141
0.0898952535
0.09342856202
0.08900802158
0.08144457941
0.09023504643
0.08659798851
0.08022531879
0.0804515841
0.09288562051
0.09533944255
0.1021333702
0.1083115747
0.09806993323
0.07459610161
0.07656572084
0.08739651495
0.09125518257
0.09025008592
0.08815555343
0.07688233893
0.07662917081
0.07971589498
0.08725707311
0.08721326408
0.08987540443
0.09632306443
0.09746923793
0.08219324878
0.09823928025
0.09598158293
0.09200910052
0.08670448633
0.08121913023
0.08504726419
0.09302311873
0.09257258086
0.08101749608
0.08364104003
0.1013365493
0.1043820865
0.09239365271
0.08175232056
0.08173064331
0.08555865375
0.09010511161
0.08984219052
0.1000666322
0.09834098334
0.07090527927
0.07438047806
0.08049105728
0.0940628494
0.09255083726
0.08248200645
0.08919024962
0.08875531613
0.09741930868
0.1023370593
0.09420499558
0.09488712548
0.08399173148
0.09210754014
0.08933912256
0.07091415899
0.0655913588
0.07298890441
0.07798152942
0.08176434876
0.09962918154
0.09370456033
0.09391810738
0.08678471104
0.08726534036
0.1016196454
0.09886754244
0.08785338611
0.07492170475
0.06600618571
0.07598926807
0.07569880732
0.08585060402
0.09633744917
0.08949906315
0.09100077024
0.1084569748
0.1038802508
0.1083684245
0.1105309179
0.1079719463
0.1093021812
0.105020936
0.09496468083
0.1063454936
0.1003801289
0.08753362074
0.07789406867
0.07067408955
0.08528765128
0.08348953366
0.084891149
0.1042840211
0.09154636505
0.08535946162
0.09977851885
0.08720599004
0.08716579728
0.09220743061
0.1098355697
0.1183895538
0.1089609217
0.1000077835
0.1062070173
0.1020645501
0.09410126263
0.08327973024
0.08566227229
0.0854108571
0.09016733809
0.08174051826
0.08189583721
0.08139790416
0.09813318065
0.109781533
0.0983776726
0.1040191628
0.09797109639
0.09180259726
0.08752546258
0.08403733157
0.08931722797
0.0890010594
0.08308910358
0.07637004754
0.07704547629
0.07442940681
0.07987735156
0.08614704696
0.08953150831
0.08786767162
0.08747403603
0.1012488181
0.08299744465
0.0914035804
0.08314892328
0.08047308668
0.08716409958
0.08238212753
0.08855754643
0.08912081316
0.08139985737
0.0807722693
0.08377376577
0.09050791909
0.08847418649
0.09229517371
0.08712582724
0.08348036476
0.0823215023
0.08346260595
0.09381679875
0.08954954379
0.09158845283
0.09373539908
0.08682299305
0.09571532065
0.1011528855
0.1078733701
0.1009331111
0.09682678271
0.09177702554
0.0911051099
0.09164820114
0.09692930358
0.09455184606
0.08984126101
0.08904499027
0.08848348621
0.078038082
0.07513064988
0.0664839338
0.0752213494
0.07381040375
0.07671640966
0.1002789899
0.1032597312
0.08462704397
0.08731766487
0.09894097413
0.1052642525
0.1137641104
0.09754882521
0.09008665256
0.08354496561
0.08799495447
0.08633588685
0.08746357679
0.07912269883
0.0874803665
0.0933349766
0.08025891721
0.08939843512
0.09713894971
0.1041842524
0.1066152378
0.1003936582
0.1002836609
0.09599690361
0.09542031447
0.08469725746
0.07199558436
0.08776543015
0.08126287534
0.08766415176
0.08007915685
0.09854062691
0.108557296
0.08738094062
0.08912749937
0.09379690443
0.09827348335
0.09576165185
0.106540259
0.1083103074
0.07415156908
0.06750748207
0.06555065099
0.06503162447
0.0793490481
0.09531613898
0.1026887607
0.1024583307
0.10108741
0.09629277108
0.1025459811
0.1039174801
0.09894382543
0.08865014923
0.09105766788
0.09796898081
0.0892593963
0.08257342944
0.08090090081
0.08167656278
0.08762649401
0.09537357391
0.08724403924
0.08244673125
0.0682570673
0.07290920983
0.08307922217
0.08727800404
0.09111449285
0.09979801356
0.1034449929
0.1037197362
0.101500301
0.1023639023
0.09358563361
0.08806002767
0.08653999596
0.08554212048
0.09601348722
0.08979839076
0.09335600784
0.08398118622
0.09453308155
0.1050603493
0.100616061
0.09368843002
0.09905506174
0.08642781148
0.09620577255
0.1095210103
0.1044713338
0.1085751111
0.111595598
0.1097247305
0.1010912333
0.09386370119
0.08855930203
0.09328784674
0.08673641053
0.08484551473
0.1084272537
0.1026745171
0.09598274395
0.08574809149
0.08772672986
0.09069149724
0.09457777024
0.09671515883
0.07842305316
0.07198662336
0.06728833857
0.09640767842
0.1019895101
0.1096173312
0.1033002286
0.09469178825
0.08304337648
0.09472931871
0.09102340295
0.09036388936
0.1012516534
0.09322055751
0.1066787708
0.09577785949
0.1064615641
0.1109927786
0.09527679973
0.09991212301
0.1052661589
0.08686598057
0.08002921964
0.07616264242
0.07744029779
0.0796634676
0.07554656466
0.08515679894
0.09311856812
0.09411898914
0.0938385999
0.1025201136
0.1151575568
0.100842023
0.09676370338
0.1135999001
0.09755769894
0.09262065731
0.1004985642
0.09680531914
0.0869873661
0.08563848359
0.08304053523
0.08481775597
0.09419036548
0.09359525021
0.09900513927
0.09424377103
0.08834395526
0.09181963709
0.08668030764
0.1050344823
0.09558161269
0.09936844799
0.11395763
0.1004479459
0.1018668306
0.1080088986
0.1000660975
0.0873641606
0.08354748745
0.07833732198
0.08674158185
0.09197113296
0.08806464926
0.09591690408
0.08994288616
0.08638771309
0.08640460986
0.09456770062
0.09316388904
0.1012363797
0.09248283233
0.1007666909
0.107706661
0.1072950553
0.1037574524
0.09251146554
0.08963190238
0.08482805368
0.08530378606
0.08745511057
0.09809615964
0.09036157589
0.08053647081
0.084502439
0.09436564191
0.09078129537
0.08345342645
0.08244428148
0.07811193786
0.07998557895
0.08592391843
0.08625598314
0.08309354995
0.0778684652
0.07958315928
0.08876999003
0.08848094337
0.08501587084
0.09274822863
0.09118954403
0.08267010449
0.07748097617
0.08171050968
0.09435647416
0.09599653357
0.09881616576
0.1019867315
0.1014547352
0.09371749469
0.08698117018
0.114569475
0.09589101884
0.08174577804
0.07396675243
0.08608987029
0.09285227403
0.09417893248
0.08915023959
0.07997446147
0.08468123514
0.07063964621
0.09172801634
0.0923066431
0.09928812272
0.1145336553
0.1097765418
0.1004020966
0.08877350466
0.09208597181
0.1017428306
0.08207808383
0.1055291185
0.1161099181
0.1139688898
0.1044392389
0.1005197712
0.08961938539
0.08597535075
0.08037936252
0.09989395563
0.08191990787
0.07453723193
0.08690411857
0.07207435293
0.08710193193
0.08612736502
0.1019460922
0.100846991
0.1041808775
0.09483129192
0.0878448858
0.07755110183
0.08565584759
0.09805698432
0.1072548777
0.09603263579
0.08891342635
0.07699303977
0.08521543335
0.07982034886
0.0717895038
0.07833293858
0.08061614316
0.07438827502
0.07860866986
0.100784169
0.09549445494
0.08892208648
0.08233253513
0.0742706637
0.08879011819
0.08149689779
0.07416122733
0.08267395896
0.08957353471
0.08763077033
0.08167968802
0.09623445348
0.08895379691
0.08154971468
0.08569610023
0.08388282876
0.08847614701
0.08292648484
0.09727577398
0.08939397104
0.08038195964
0.08813945253
0.09857350453
0.09894224024
0.0822770342
0.0843067799
0.09043694082
0.09135079556
0.08404444914
0.08638121573
0.07818139897
0.08502291692
0.08336977171
0.09283519394
0.08508747055
0.08559840912
0.09136257285
0.0837261873
0.08613909649
0.08693241039
0.0907597937
0.09590416101
0.08468623602
0.09180693616
0.08650642192
0.1058629577
0.1192224286
0.1125425874
0.1097057526
0.09496379089
0.08166540669
0.088545113
0.09691623865
0.09119137657
0.0860827097
0.07905288634
0.08324363105
0.08976904933
0.09272096894
0.1034931643
0.107010561
0.08939237206
0.08306373981
0.08504183423
0.08405593251
0.08884329234
0.08263293698
0.09190474466
0.078010347
0.08702057067
0.09469928106
0.08948025364
0.08251989962
0.0861000329
0.07505202026
0.08046714305
0.08311972539
0.09000999798
0.07785565202
0.06806160773
0.06623545623
0.0651687738
0.08068962118
0.08756934643
0.07486592365
0.06940886397
0.07348165751
0.08992552275
0.1045231362
0.09736787048
0.08637476989
0.09816906272
0.08776407971
0.08212788403
0.0809024354
0.08670798621
0.08704518479
0.08578770788
0.08943320971
0.07450836254
0.07685150409
0.08044873017
0.07533245988
0.088863393
0.08466748735
0.09332457811
0.08106653375
0.07930402699
0.0787718689
0.0870067372
0.08157748986
0.08382016061
0.08259028049
0.08062318631
0.08104587677
0.09096105771
0.08308634541
0.07584935876
0.07625983461
0.07692990363
0.08226267554
0.07549770495
0.07421251317
0.08109081394
0.08554793672
0.07532912861
0.08095844067
0.08316060642
0.08851968934
0.09524924699
0.08740137423
0.09066005834
0.1029502456
0.09021458472
0.09722549372
0.08174466226
0.07304483613
0.08024549611
0.1004887344
0.1087846345
0.1047044426
0.09461527031
0.0940023847
0.09027656252
0.09235729941
0.08827081532
0.07634371018
0.08567677493
0.09746672148
0.09351321368
0.09115172613
0.09191375959
0.104092785
0.1126219571
0.1087382068
0.1122392883
0.1134959881
0.09950269052
0.08477963461
0.08548267375
0.09990016437
0.08883197185
0.1034187167
0.09371780939
0.1011472374
0.09872125706
0.08276202458
0.077715022
0.07579709186
0.08224270175
0.08554163946
0.08386131667
0.09288957451
0.1128176445
0.1265159219
0.1069107829
0.09969032381
0.107062544
0.1237432479
0.09256853116
0.08097551238
0.1002498025
0.09651057703
0.1036241714
0.1045334196
0.1131257266
0.1156914984
0.1062650592
0.1005882956
0.1044517694
0.09460430717
0.1015527241
0.1017418031
0.08850791574
0.08615624158
0.09669554876
0.09223764911
0.08550697237
0.08369614914
0.08577728495
0.1000749136
0.0967160313
0.1076538194
0.101225437
0.1029479855
0.09349890753
0.08502452113
0.09248026607
0.09370959887
0.1013445912
0.1001672655
0.1160253368
0.1036705934
0.1144921507
0.1122004318
0.09637179491
0.08426801479
0.07257050352
0.0818587852
0.08139698531
0.09612262054
0.1056759939
0.101388975
0.09827589867
0.1011960409
0.08392313063
0.09381865154
0.09822752348
0.09736235118
0.09360029169
0.09507779823
0.08812274563
0.08185648088
0.09241110563
0.1061087624
0.09423727514
0.09998750575
0.09813329149
0.09187312783
0.08169777211
0.07142059478
0.07140551997
0.08169786189
0.08781780542
0.07729674693
0.08566005345
0.08454984048
0.08971741925
0.09350682417
0.07655435765
0.07223613877
0.08449228583
0.08170107284
0.0846936946
0.08390114778
0.09997782888
0.09594270433
0.09430604351
0.09981198926
0.08899878302
0.08447993398
0.08843055395
0.0826586718
0.09367459402
0.09354538372
0.09584141028
0.1044434404
0.102268028
0.09866799862
0.09037855028
0.08398607846
0.09071613206
0.08554364988
0.07780297568
0.08110960577
0.08685893006
0.1003163295
0.0971433748
0.08144770187
0.07561463219
0.08381205323
0.08739505681
0.1054681231
0.1016047383
0.08094727074
0.08231454873
0.0848885207
0.08574109736
0.09424084124
0.08145342583
0.0927566924
0.08557508183
0.08879946327
0.08691848687
0.1052831132
0.1041499112
0.09978616928
0.1027321541
0.09026600885
0.09596716601
0.08728354242
0.07453317942
0.07680147512
0.07320390443
0.1025939829
0.09477986005
0.08054762474
0.08748733267
0.08967536237
0.09248210272
0.09471384832
0.0936102072
0.09242960598
0.1075809179
0.1114832545
0.1160711606
0.103969002
0.08830722256
0.08615048473
0.0904040453
0.09135946781
0.09587704355
0.09197078333
0.1077481166
0.09137999464
0.09468982112
0.0870945313
0.08118596962
0.06922916784
0.06833644716
0.07225764001
0.07814435414
0.09884617548
0.0939377143
0.09141826664
0.09909561602
0.09800306555
0.09721510324
0.09585830259
0.08085089701
0.08048497062
0.09204875517
0.09235697872
0.09063865877
0.09290543999
0.09020234466
0.07993538424
0.08311392866
0.08451614066
0.08445094978
0.08151630336
0.07946730164
0.1005111213
0.1095879778
0.1088366925
0.09503836903
0.09274241016
0.08717067792
0.08132071975
0.08820259393
0.08092369795
0.08461227886
0.08578301979
0.08162476765
0.07983658998
0.08910879981
0.099586088
0.1107902107
0.1042198051
0.09268114251
0.09777944194
0.08071669875
0.07178370405
0.06463367585
0.07498006653
0.08298209714
0.08925113587
0.08261386241
0.07584689082
0.07231060828
0.0732157655
0.07851485936
0.08118714148
0.07806948711
0.09048503504
0.08639125044
0.07451235691
0.0600612651
0.06054107085
0.07262978442
0.08717154891
0.08567382391
0.08527701849
0.0842790423
0.0873836832
0.09195637238
0.09141217497
0.09225915316
0.09897300875
0.1070510357
0.09663722701
0.1034506906
0.08375366372
0.07785559269
0.0823569049
0.0843490131
0.08324647665
0.08670192533
0.07754883503
0.08058970717
0.0779206593
0.07539193623
0.0775964432
0.07798591868
0.06793759914
0.07095630541
0.07530256792
0.07551593541
0.08038903792
0.08883580956
0.08516097711
0.08778383215
0.09742960986
0.08139747969
0.08437416643
0.08373069268
0.1014314285
0.1015337556
0.08645411364
0.08121044607
0.08339097018
0.07567709354
0.07755041372
0.08702235174
0.09712159897
0.08984771413
0.08723190289
0.09420561416
0.09833018833
0.09384414098
0.09763925753
0.1014564853
0.09357580532
0.08380178218
0.0904512854
0.08644211669
0.0855614349
0.09106940586
0.0880841779
0.09992535582
0.09102883725
0.08893149667
0.07609324192
0.07943078617
0.07269268606
0.08627202754
0.0874255754
0.08465110672
0.08602600913
0.09156188011
0.09824990629
0.09508489136
0.09310465141
0.09402488543
0.09299545597
0.0911325008
0.1059875589
0.09590123986
0.07677593852
0.08986585657
0.0904647577
0.09363661377
0.09852791217
0.09993079736
0.09955997635
0.09742274917
0.09327730227
0.100063391
0.09522722818
0.0987547726
0.1030276403
0.1087381333
0.1053250841
0.09530314826
0.1049664424
0.09602571621
0.0889568028
0.0952688253
0.09430111791
0.09938936027
0.08246657298
0.09691255334
0.09978571912
0.107790724
0.1010521579
0.1064688143
0.1230894796
0.09747290761
0.1023214311
0.1195550674
0.1075570368
0.08802696628
0.08569291209
0.08288830759
0.09312264308
0.09647606334
0.1042078532
0.09349180575
0.1091622906
0.1063123034
0.1094558342
0.08377033348
0.08856164911
0.08855508158
0.08688257933
0.07737856729
0.08678982177
0.09526832565
0.1051872302
0.1038882339
0.1131852586
0.1004643507
0.1137425874
0.09841577888
0.09822675131
0.1047942944
0.09374982699
0.08645505842
0.09421051652
0.099655543
0.1061455427
0.1205995773
0.1346125751
0.1204735379
0.1146875392
0.1200357444
0.1154997969
0.09418210511
0.08725095337
0.09569787417
0.09515141211
0.09372649866
0.09087395407
0.096538387
0.08982582784
0.0985025359
0.08556030285
0.09397993589
0.09244980272
0.09128390542
0.08775246116
0.08826557137
0.08191335507
0.07829176773
0.08639879539
0.09053079977
0.08946474295
0.09102553753
0.09339811734
0.09216645116
0.0958942372
0.1047390604
0.1068685788
0.08971990155
0.0776480886
0.06557049984
0.07778865557
0.0897016173
0.08792854437
0.1000300003
0.08853981556
0.08343502457
0.09025989546
0.09217878481
0.08386564802
0.08994443407
0.09202641321
0.09392021033
0.09239190099
0.086510247
0.09472550616
0.08181029041
0.0802815021
0.07243572269
0.09381694305
0.1007326572
0.09645071269
0.09520308489
0.09493926221
0.08424004799
0.08116776856
0.08524012074
0.08600908687
0.09195337491
0.1000317113
0.1086256243
0.1114438873
0.1170134221
0.1050565353
0.09911681518
0.08091119385
0.07737222242
0.08019429422
0.09148388427
0.09391132986
0.08458556841
0.07950376273
0.07327334775
0.06988804939
0.07560191788
0.08147277076
0.09362714179
0.09174946734
0.09277324194
0.09508278551
0.1032824131
0.1112472068
0.09785155709
0.1020076005
0.09938155206
0.1079672388
0.1021857022
0.09501529559
0.09729756699
0.08162116399
0.0915220789
0.104932771
0.09256787369
0.09030287695
0.0836439753
0.08894910674
0.09831382924
0.09555268898
0.09065113011
0.1045147529
0.1026802401
0.0945218941
0.08982776097
0.07897123686
0.07026290135
0.07966128991
0.08687227363
0.07963043423
0.07323025581
0.09260456811
0.0894349987
0.0952974206
0.1053000883
0.09890090502
0.09483974961
0.1094480575
0.1018641804
0.08359342536
0.09137101587
0.08716896522
0.0831205292
0.09360985052
0.09383033059
0.1041551213
0.09749971246
0.08482853376
0.07955100308
0.08792505808
0.08335587869
0.1033462819
0.0867250187
0.09242403039
0.0954787749
0.09703392886
0.102300934
0.09981353969
0.1093189929
0.09586859114
0.08953975374
0.08649348722
0.08700453198
0.09128367327
0.08520976238
0.09403531616
0.09412258985
0.1075537823
0.1039078074
0.09705750997
0.1007293147
0.09311593039
0.08476244728
0.08849768385
0.09734438834
0.08666808697
0.1020987967
0.0995932709
0.08208411342
0.08025735482
0.08578347667
0.07562629217
0.0715737644
0.09114675049
0.08665227327
0.09424011051
0.09807860583
0.09495418986
0.1009561052
0.1071108016
0.09340136737
0.08540811913
0.09667360964
0.08947990912
0.08392721934
0.07648312956
0.07338128855
0.0672662979
0.0769588454
0.08078227614
0.0799031159
0.09002378669
0.08283095957
0.074442766
0.07290310436
0.08118461469
0.09247745317
0.09898551044
0.08859800425
0.09409907624
0.08099474243
0.1162871143
0.1025034022
0.09609859997
0.1010009679
0.09960303693
0.1057386992
0.1016825046
0.08947902268
0.09312141161
0.1017623677
0.09348421928
0.1024083575
0.09291756647
0.0952376446
0.08869380896
0.09834026429
0.1138664571
0.1023938492
0.09547143512
0.1060563248
0.09512847736
0.1063053153
0.1178861398
0.1002980732
0.109281772
0.09523371206
0.09486213893
0.08435683791
0.07997963945
0.08393828481
0.09024807655
0.09677820848
0.09351776105
0.08097147724
0.07845320396
0.08874785309
0.09102165045
0.1014251397
0.1063473212
0.09874970641
0.08608270795
0.09514775819
0.08961597501
0.09755719281
0.09091900692
0.08787291758
0.08797979133
0.1082689788
0.1037288504
0.1092105863
0.09727051538
0.06884456602
0.06968140276
0.08447687868
0.1029711089
0.1197735338
0.09765874186
0.09955665848
0.100094356
0.1007687774
0.07712956698
0.07438732576
0.08094875506
0.09028593517
0.08946671879
0.08620473701
0.0987283753
0.1072914448
0.09078216618
0.09093144503
0.07496141973
0.08339953688
0.07965925563
0.08967399468
0.0829300917
0.07341183249
0.07932624316
0.08077309551
0.08632869427
0.07664123746
0.08797839649
0.08104145308
0.08530274529
0.08298886629
0.09073914668
0.0946174407
0.09983015947
0.08751048374
0.0880924719
0.1007726723
0.1011920881
0.1152644665
0.09521452859
0.09628258587
0.08708281305
0.08461354123
0.07485764724
0.07167831302
0.07350094153
0.0746859963
0.08604942106
0.0939030224
0.1004347261
0.1026972464
0.1140555957
0.1208585719
0.1141331041
0.1095915962
0.08987041714
0.0838307128
0.08951424235
0.08188364244
0.08931274419
0.09166170946
0.09903170811
0.08541439101
0.08950193574
0.09947185513
0.09243414485
0.08244088378
0.08682746239
0.09439480902
0.1123537848
0.1214027168
0.1145357166
0.103586089
0.09722311183
0.08617384044
0.08152183277
0.09993183313
0.100975819
0.09495905384
0.09459040092
0.09759396291
0.1028785795
0.1003093941
0.08889675343
0.08839446164
0.09402670541
0.09339182276
0.129635327
0.1314302946
0.1090541758
0.09690859834
0.1011598009
0.1039855067
0.1019213111
0.08972881518
0.1016647518
0.09715486141
0.09440625219
0.09394550188
0.08956206022
0.08747560433
0.1025640833
0.1070894723
0.1118770031
0.1096682244
0.1124090638
0.1186696364
0.08178087354
0.08308855551
0.08560420302
0.09544447372
0.09493475493
0.09958513173
0.1032317845
0.1165115117
0.10640779
0.1100390419
0.09625711994
0.09129574214
0.08613722745
0.09387075457
0.1015794059
0.1047335887
0.1041856748
0.1055299407
0.1031811001
0.1015274202
0.09699230124
0.09549330025
0.08228262895
0.08018809175
0.0901447313
0.07810310366
0.090429478
0.08623415441
0.09355229789
0.09305845607
0.1024504037
0.105272853
0.09055030677
0.09206031912
0.09534532997
0.09219620928
0.0963888034
0.11651738
0.1066718465
0.1044499942
0.09153133438
0.09534127144
0.08684276017
0.09369548902
0.08765194734
0.08847030266
0.09368578293
0.08714835111
0.09397831449
0.09494545498
0.1020069361
0.09377644209
0.09314925101
0.1089583549
0.1135787911
0.1115281816
0.1091751924
0.106542142
0.1002488665
0.09755090222
0.09056122074
0.09132410247
0.09547834038
0.08783246842
0.08664367805
0.09675369607
0.1012598117
0.0975556788
0.0871566521
0.08677078925
0.07817980985
0.06861332164
0.07520521703
0.07538218745
0.07214064217
0.08113883703
0.07939199116
0.07878620898
0.08839008296
0.08449616052
0.07727516241
0.08444077589
0.0869606934
0.1034445891
0.1115045187
0.09235286952
0.0853991273
0.07463452532
0.07303628222
0.07899303632
0.08198963387
0.06958506512
0.08056908595
0.08559555531
0.07986546736
0.07546654679
0.07439402787
0.07436320898
0.08557200549
0.08393183036
0.08111166159
0.09147994612
0.0884380019
0.08552862704
0.08235177531
0.08437847682
0.09200077686
0.08395483241
0.08414114797
0.08420631785
0.08341833912
0.08348229395
0.08069257838
0.06756048657
0.06461154005
0.07070584544
0.08783031754
0.09375645281
0.09400219405
0.09803730383
0.1059025854
0.09514119183
0.0803777425
0.08109246443
0.08108762488
0.08042585951
0.07968152257
0.08042118665
0.08356507891
0.08085039675
0.08718410933
0.08240816057
0.08644282741
0.1089370325
0.111930889
0.09791243218
0.08216188577
0.08276789209
0.09504964481
0.1147703735
0.09413172444
0.08575639547
0.09839059267
0.1072832267
0.09605344599
0.1067181092
0.1131230373
0.113700241
0.1080289799
0.09784219087
0.09260984981
0.09346252295
0.08290983987
0.08848088933
0.09045787381
0.08593814615
0.09076039737
0.07761035699
0.08463327606
0.0842987725
0.0733413705
0.09393738692
0.08723051246
0.09108523729
0.09077233325
0.09653334345
0.1039955632
0.1094328824
0.1044714829
0.08653762911
0.1000582658
0.1064496558
0.1065094067
0.1066374374
0.09860510945
0.08884283797
0.07492982651
0.09483016871
0.1011687525
0.09346672767
0.1072933381
0.08032099437
0.08232623686
0.0977600232
0.07540411984
0.07402230726
0.06749860534
0.07800953929
0.08365355469
0.07703576435
0.08726845366
0.09285621746
0.09339455398
0.09376367701
0.0788221513
0.07656821185
0.08158961397
0.08887616031
0.09935946337
0.1018447347
0.09882163994
0.09611043352
0.0886680379
0.09634447511
0.08513649672
0.08565098063
0.08483674075
0.09512478087
0.09986827948
0.1005798252
0.1053252178
0.1028869013
0.09103453646
0.08573482032
0.0823342258
0.09332708216
0.09622761835
0.09489789074
0.09835504121
0.08765129141
0.1077159427
0.09764908851
0.0874813621
0.08509748034
0.09391134726
0.09521087826
0.08797796952
0.08993643536
0.08564735169
0.0891674949
0.09381830918
0.09405654874
0.09307888345
0.08018174016
0.08737316572
0.08661538778
0.09369082105
0.08863111501
0.09916092526
0.09658943308
0.08366041485
0.09131809102
0.08300617759
0.08250970242
0.09162551085
0.09632267666
0.1025939104
0.0986579824
0.09235148687
0.0839633029
0.08408950334
0.08230805841
0.09035642108
0.1044159681
0.100010019
0.08135957401
0.07932136813
0.07314977092
0.07548917011
0.08192305605
0.08445940175
0.08921262673
0.08467824277
0.08943802945
0.09767720369
0.09489950615
0.08695081076
0.08143688937
0.08403368355
0.08273455102
0.09144140412
0.08901091527
0.1051992447
0.08850205143
0.07866275229
0.08482315709
0.09327591989
0.0902206311
0.08998000496
0.09555519017
0.0960722497
0.09415186564
0.09254101361
0.1020917006
0.1029692939
0.09909944307
0.1014433248
0.1076252034
0.110387002
0.09137726061
0.08321739769
0.09100855872
0.07990961602
0.08171109986
0.09994566934
0.1069152958
0.1071092014
0.106883748
0.1057879537
0.0948065001
0.09447278166
0.1010579551
0.1068699753
0.1073613034
0.109775855
0.1042499237
0.1032657942
0.09916662446
0.09459498959
0.09087243536
0.08524861515
0.08579124478
0.08937661217
0.07782724719
0.07387804574
0.06919706133
0.0808941369
0.08288736866
0.08641402453
0.09188274998
0.10319453
0.09114752295
0.08748763259
0.08975617443
0.09057768712
0.1132741658
0.09612919401
0.09935315311
0.09201149493
0.08490382905
0.1015366068
0.1130085427
0.09631895984
0.103341661
0.08953464239
0.07815161454
0.08890194115
0.09644253593
0.09836868123
0.1049202121
0.09228600111
0.09323658231
0.09564183096
0.07992405971
0.08144588267
0.08940515474
0.09872984136
0.1072216158
0.09857327891
0.09488750219
0.07706380774
0.06249202212
0.08778676378
0.09954978212
0.09473839366
0.09603326249
0.08184561726
0.09156991595
0.09043457364
0.08669249414
0.1001301876
0.09369641864
0.09922349151
0.1090342356
0.1047169109
0.08742751545
0.09197703447
0.08758907533
0.08528841415
0.09521845212
0.09558028947
0.102340193
0.1014556726
0.09386434061
0.08177086069
0.1000315927
0.1060350669
0.1057059257
0.1039606077
0.1026361247
0.1174812745
0.1061138863
0.09996328491
0.11270966
0.1022296787
0.100440256
0.08700304616
0.08664928538
0.1092720349
0.09788696518
0.1020329328
0.1036732799
0.0968115096
0.09084168618
0.08982577608
0.07994366509
0.0877365501
0.08385845437
0.07585887843
0.09462146899
0.08812283615
0.07623893095
0.08108347262
0.07150282274
0.08075158393
0.08457983191
0.08928715365
0.09221886251
0.08482123527
0.09151441644
0.08868139131
0.09031727039