/*--------------------------------*- C++ -*----------------------------------*\
| =========                 |                                                 |
| \\      /  F ield         | OpenFOAM: The Open Source CFD Toolbox           |
|  \\    /   O peration     | Version:  2.4.0-MNF                             |
|   \\  /    A nd           | Web:      www.OpenFOAM.org                      |
|    \\/     M anipulation  |                                                 |
\*---------------------------------------------------------------------------*/
FoamFile
{
    version     2.0;
    format      ascii;
    class       volScalarField;
    location    "0.0008";
    object      rhoM_mixture;
}
// * * * * * * * * * * * * * * * * * * * * * * * * * * * * * * * * * * * * * //

dimensions      [0 -3 0 0 0 0 0];

internalField   nonuniform List<scalar> 
5120
(
4.7153632e-06
4.5745584e-06
4.3790128e-06
4.3535408e-06
4.3524816e-06
4.47944e-06
4.6378368e-06
4.6718208e-06
4.7334848e-06
4.6787952e-06
4.7335104e-06
4.6234736e-06
5.0023072e-06
4.9061552e-06
4.934288e-06
5.0054592e-06
4.9725088e-06
5.135608e-06
4.8779712e-06
4.9231536e-06
4.4752032e-06
4.7425008e-06
4.6930816e-06
4.7053008e-06
4.7265488e-06
4.8259168e-06
4.9290048e-06
4.9858384e-06
4.9704416e-06
5.0953072e-06
5.0921552e-06
5.136808e-06
4.8280608e-06
4.6309136e-06
4.71544e-06
4.7356416e-06
4.5491376e-06
4.4306272e-06
4.436944e-06
4.4172592e-06
4.565568e-06
4.5273472e-06
4.6963488e-06
4.8121856e-06
4.7579616e-06
4.9497232e-06
4.9348688e-06
5.05604e-06
4.7893104e-06
4.6208384e-06
4.7775568e-06
4.4284448e-06
4.3684464e-06
4.5788592e-06
4.6144064e-06
4.4358848e-06
4.3854064e-06
4.3381056e-06
4.446024e-06
4.6171312e-06
4.6075216e-06
4.6633344e-06
4.5501456e-06
4.7563216e-06
4.9114768e-06
4.7452256e-06
4.796272e-06
4.939712e-06
5.0597728e-06
5.1437056e-06
5.0831008e-06
4.8317424e-06
4.7105712e-06
4.7854624e-06
4.9374528e-06
4.862032e-06
4.9720432e-06
4.9481472e-06
4.7573552e-06
4.7169904e-06
4.5282784e-06
4.5447856e-06
4.5453664e-06
4.425784e-06
4.4528448e-06
4.729184e-06
4.7509616e-06
4.7690448e-06
4.8248192e-06
4.9858256e-06
5.0692416e-06
5.0730128e-06
4.9189296e-06
4.699488e-06
4.3764288e-06
4.3492912e-06
4.5581408e-06
4.4486592e-06
4.5107888e-06
4.5989584e-06
4.8561168e-06
4.5659696e-06
4.409768e-06
4.4831088e-06
4.5442176e-06
4.4703344e-06
4.4592e-06
4.5463744e-06
4.4969936e-06
4.4220768e-06
4.5687328e-06
4.5612928e-06
4.732904e-06
4.6096144e-06
4.8375808e-06
4.8604304e-06
4.7551728e-06
4.8136592e-06
4.6962336e-06
4.6733584e-06
4.7780864e-06
4.5836128e-06
4.6755024e-06
4.791856e-06
4.7924112e-06
5.0889392e-06
5.064488e-06
5.0852704e-06
5.10812e-06
5.0841856e-06
4.9704672e-06
4.780256e-06
4.9120064e-06
5.068712e-06
5.1515856e-06
5.0559632e-06
4.951312e-06
4.98e-06
4.8407968e-06
4.603272e-06
4.8982496e-06
4.8216928e-06
4.658568e-06
4.8047072e-06
4.7919584e-06
4.94444e-06
5.0475408e-06
5.2015984e-06
5.0544384e-06
4.7350864e-06
4.842992e-06
4.7855776e-06
4.833344e-06
4.9131168e-06
4.866384e-06
4.8855008e-06
4.7382896e-06
4.901944e-06
4.8514656e-06
4.9200272e-06
5.3934496e-06
5.31644e-06
5.2595936e-06
5.0029008e-06
4.8865344e-06
4.8891824e-06
4.752576e-06
4.952384e-06
4.9220688e-06
4.7786032e-06
4.9597472e-06
4.9693184e-06
4.9209456e-06
5.098408e-06
5.0495312e-06
4.9640224e-06
5.010264e-06
5.1282704e-06
5.154336e-06
5.2441072e-06
4.7371792e-06
4.7286288e-06
4.7568e-06
4.7143168e-06
4.9029776e-06
4.872688e-06
4.7542032e-06
4.8307216e-06
5.0251824e-06
5.1351936e-06
4.9120448e-06
4.7563088e-06
4.5193136e-06
4.5661104e-06
4.6500688e-06
4.7823488e-06
5.0342496e-06
4.9656752e-06
5.0384736e-06
5.1676272e-06
5.0198736e-06
4.9507824e-06
4.7897888e-06
4.7057664e-06
4.6993728e-06
4.9183232e-06
4.9789024e-06
4.7520464e-06
4.7478096e-06
4.5522768e-06
4.6038528e-06
4.9353728e-06
4.6802816e-06
4.7897632e-06
4.575656e-06
4.8291584e-06
4.9481856e-06
4.9705056e-06
4.8886912e-06
4.8152864e-06
4.875904e-06
4.875904e-06
4.7207616e-06
4.8243408e-06
4.786624e-06
5.008184e-06
5.0198992e-06
4.9130784e-06
4.9072144e-06
4.8237728e-06
4.7738112e-06
4.8179344e-06
4.6511024e-06
4.7132704e-06
4.960328e-06
4.8578592e-06
4.8052752e-06
4.7106736e-06
4.8270784e-06
4.9790304e-06
4.69356e-06
4.8615024e-06
5.0681952e-06
5.0666448e-06
5.2749648e-06
4.9879952e-06
4.9003296e-06
4.7860432e-06
4.6765744e-06
4.8752976e-06
4.7472288e-06
4.5979248e-06
4.5081152e-06
4.596336e-06
4.6766e-06
4.8365216e-06
4.6595632e-06
4.642552e-06
4.6828912e-06
4.4815456e-06
4.5671952e-06
4.6856288e-06
4.5331344e-06
4.6069536e-06
4.573448e-06
4.7190192e-06
4.6749472e-06
4.5326048e-06
4.4683184e-06
4.5921248e-06
4.726536e-06
4.8705568e-06
4.7850096e-06
4.936936e-06
4.868968e-06
4.8557024e-06
5.1033152e-06
4.9843008e-06
4.817456e-06
4.702704e-06
4.432216e-06
4.7106224e-06
4.8041136e-06
4.8901904e-06
4.5416208e-06
4.3880544e-06
4.4736272e-06
4.4672336e-06
4.5841296e-06
4.816384e-06
4.8163968e-06
4.9561168e-06
4.9895712e-06
4.9411984e-06
4.9619168e-06
4.7382128e-06
4.7754e-06
4.8795472e-06
4.5257072e-06
4.6043824e-06
4.7280864e-06
4.374776e-06
4.3402368e-06
4.19836e-06
4.4151408e-06
4.5575472e-06
4.6882768e-06
4.8014784e-06
4.6170672e-06
4.6903952e-06
4.6681136e-06
4.9109472e-06
5.0135312e-06
5.0390416e-06
5.0873504e-06
5.044312e-06
4.9821568e-06
4.8248576e-06
4.8503168e-06
4.7913008e-06
4.8891184e-06
5.0374016e-06
4.9258144e-06
4.7695872e-06
4.7616048e-06
4.8344288e-06
4.9178576e-06
4.859384e-06
4.8439616e-06
4.7934704e-06
4.7366496e-06
4.9826864e-06
5.1532384e-06
5.0698224e-06
5.2590128e-06
5.237752e-06
5.3291248e-06
5.004968e-06
5.1952176e-06
4.945448e-06
4.562352e-06
4.43108e-06
4.7711248e-06
4.98952e-06
5.0006928e-06
5.1755328e-06
5.1117632e-06
5.0841344e-06
5.2132752e-06
5.0368336e-06
4.8147056e-06
4.6212784e-06
4.679248e-06
4.8025376e-06
4.82376e-06
4.8795728e-06
4.9630272e-06
5.0326864e-06
4.8211504e-06
4.7084912e-06
4.6054672e-06
4.7568768e-06
4.6575088e-06
4.422632e-06
4.5166656e-06
4.3886224e-06
4.5065904e-06
4.4613952e-06
4.5969168e-06
4.6272192e-06
4.8291456e-06
4.7956656e-06
4.9157392e-06
4.69148e-06
4.4954432e-06
4.6208384e-06
4.716448e-06
4.7435344e-06
4.6330192e-06
4.5087088e-06
4.6894128e-06
4.7361584e-06
4.8344672e-06
4.8589184e-06
4.8541648e-06
4.8126768e-06
4.804152e-06
4.842928e-06
4.7493856e-06
4.8137104e-06
4.6193008e-06
4.782968e-06
5.0396096e-06
5.0709456e-06
5.006104e-06
4.7898144e-06
4.5135136e-06
4.4189376e-06
4.645832e-06
4.6665376e-06
4.828616e-06
4.9194976e-06
5.0645904e-06
5.2532e-06
5.1225088e-06
5.1803888e-06
5.0103408e-06
4.9386016e-06
4.8248832e-06
4.4811056e-06
4.5262624e-06
4.4810544e-06
4.413552e-06
4.3604256e-06
4.465128e-06
4.7425264e-06
4.8732048e-06
4.6968016e-06
4.65964e-06
4.68196e-06
5.0708944e-06
5.2372096e-06
5.0432528e-06
5.1485104e-06
5.0220304e-06
4.4874992e-06
4.2478432e-06
4.2387632e-06
4.4905872e-06
4.6701936e-06
4.5968784e-06
4.9290048e-06
5.1612336e-06
5.4906992e-06
5.3248624e-06
4.9789408e-06
5.0676912e-06
4.820104e-06
4.7966992e-06
4.976848e-06
4.698984e-06
4.6681904e-06
4.8998384e-06
4.8998128e-06
4.902448e-06
4.940656e-06
5.0389904e-06
4.8365472e-06
4.6920352e-06
4.7074448e-06
4.8487664e-06
4.8668496e-06
4.5608144e-06
4.3711328e-06
4.491232e-06
4.650624e-06
4.716008e-06
4.785048e-06
4.9099008e-06
4.9178448e-06
5.2026704e-06
5.5719328e-06
5.5602688e-06
5.6537728e-06
5.3827552e-06
5.2036912e-06
5.3290736e-06
5.3073472e-06
5.2956704e-06
5.4832208e-06
5.648528e-06
5.3817856e-06
5.2000864e-06
5.2431248e-06
5.101184e-06
5.0602896e-06
5.2058864e-06
5.2913824e-06
5.3249136e-06
5.2808416e-06
4.885424e-06
4.7589824e-06
4.809448e-06
5.0135184e-06
5.1372992e-06
5.4497408e-06
5.4454912e-06
5.3631088e-06
5.2403488e-06
5.1500096e-06
5.2265408e-06
5.1017136e-06
5.2499584e-06
5.3403104e-06
5.2691008e-06
5.1522304e-06
4.9673152e-06
4.7807984e-06
5.1165936e-06
5.1096704e-06
4.8949824e-06
5.1718512e-06
5.0969216e-06
5.188888e-06
4.7478352e-06
4.8414032e-06
4.8844416e-06
4.8695488e-06
4.6325408e-06
4.4481424e-06
4.41992e-06
4.5304736e-06
4.6223888e-06
4.6196896e-06
4.60428e-06
4.5803968e-06
4.5671312e-06
4.6005728e-06
4.6192496e-06
4.5873328e-06
4.513488e-06
4.6389088e-06
4.7249856e-06
4.761152e-06
4.9295856e-06
4.8254e-06
4.9529392e-06
4.9476304e-06
5.0076672e-06
5.0523072e-06
4.8408352e-06
4.6856544e-06
4.6086448e-06
4.783976e-06
4.6761216e-06
4.811088e-06
4.7738624e-06
4.8206208e-06
4.5724656e-06
4.6500432e-06
4.956104e-06
4.8684128e-06
4.762664e-06
4.7924112e-06
4.632464e-06
4.5107888e-06
4.5453536e-06
4.8349456e-06
4.9300896e-06
4.9794576e-06
4.9013248e-06
4.9438848e-06
4.9470624e-06
4.7658672e-06
4.5065776e-06
4.4242336e-06
4.6336512e-06
4.6197792e-06
4.6186944e-06
4.6983776e-06
4.9625232e-06
4.8599648e-06
4.7276848e-06
4.895576e-06
5.0018288e-06
5.1734528e-06
5.0140096e-06
4.8270144e-06
4.7276592e-06
5.00932e-06
4.9035584e-06
4.8424368e-06
4.816384e-06
4.6256176e-06
4.786624e-06
4.7175072e-06
4.6171056e-06
4.7435856e-06
4.8631424e-06
4.964112e-06
5.0319904e-06
5.030944e-06
4.8959776e-06
5.0495696e-06
4.8439744e-06
4.5756304e-06
4.5326432e-06
4.699992e-06
4.8158544e-06
4.9141248e-06
4.7594992e-06
4.9146288e-06
5.104336e-06
5.0640224e-06
4.94072e-06
4.6415056e-06
4.7891952e-06
4.7700784e-06
4.9879056e-06
5.057488e-06
4.4109808e-06
4.249432e-06
4.0815152e-06
4.213808e-06
4.4991376e-06
4.5926288e-06
4.4549504e-06
4.5575088e-06
4.4517856e-06
4.4480912e-06
4.482088e-06
4.6069536e-06
4.5086704e-06
4.406112e-06
4.5825408e-06
4.7988048e-06
4.9173536e-06
4.6505984e-06
4.561344e-06
4.6336128e-06
4.8163584e-06
4.8126256e-06
4.9582864e-06
4.897152e-06
4.5698304e-06
4.6888448e-06
4.826976e-06
5.0087136e-06
4.9263056e-06
5.0314864e-06
4.8896096e-06
4.7742768e-06
4.7217056e-06
4.624456e-06
4.495896e-06
4.383792e-06
4.4667168e-06
4.4220896e-06
4.4358592e-06
4.562352e-06
4.9778816e-06
4.9136208e-06
5.0661024e-06
5.1139072e-06
5.1590768e-06
5.0331648e-06
4.9231536e-06
4.6962592e-06
4.5947472e-06
4.815248e-06
4.8625616e-06
4.9799872e-06
4.9247296e-06
4.8891056e-06
4.7955632e-06
4.7583888e-06
4.7621216e-06
4.7801792e-06
4.6866752e-06
4.8631168e-06
5.106984e-06
5.0368208e-06
4.8476816e-06
4.6394e-06
4.7058048e-06
5.0326224e-06
5.0565184e-06
5.0809312e-06
4.8317552e-06
4.5926544e-06
4.6304352e-06
4.9640992e-06
4.8625616e-06
4.8933552e-06
4.9741104e-06
4.8359664e-06
4.8306832e-06
4.9518288e-06
5.1192288e-06
5.0501632e-06
4.8960288e-06
4.9794704e-06
5.2552288e-06
5.127728e-06
5.1250544e-06
5.2616096e-06
4.9290048e-06
4.8014656e-06
4.6457296e-06
4.7430432e-06
4.6442048e-06
4.5321264e-06
4.473136e-06
4.7250368e-06
4.589528e-06
4.6692112e-06
4.62988e-06
4.6048992e-06
4.681896e-06
4.8614896e-06
4.9890416e-06
4.866824e-06
4.7743408e-06
4.808312e-06
4.6861456e-06
4.6319728e-06
4.7201552e-06
4.7313408e-06
4.7223376e-06
4.5219744e-06
4.5937136e-06
4.6622624e-06
4.83284e-06
4.9752336e-06
4.9433296e-06
4.7695744e-06
4.8375936e-06
4.8620448e-06
4.8073424e-06
4.901376e-06
4.8530544e-06
4.7712144e-06
4.8221584e-06
4.8094352e-06
4.9518672e-06
4.8780096e-06
4.9173408e-06
4.7738624e-06
4.5086832e-06
4.5963872e-06
4.4847744e-06
4.4454432e-06
4.3487104e-06
4.3306528e-06
4.5501328e-06
4.588392e-06
4.7180624e-06
4.8073424e-06
4.946584e-06
4.8939744e-06
5.0485744e-06
4.9358896e-06
4.9135568e-06
4.7647568e-06
4.5596784e-06
4.4544592e-06
4.6521616e-06
4.698416e-06
4.7882384e-06
4.6426288e-06
4.9572016e-06
4.844e-06
4.8429536e-06
4.8753488e-06
4.916256e-06
4.9949056e-06
5.0017904e-06
4.8785392e-06
4.98164e-06
5.1979168e-06
4.8302176e-06
4.9763568e-06
4.7558176e-06
4.6904592e-06
4.7706848e-06
4.8965968e-06
5.005536e-06
4.865752e-06
4.9337712e-06
4.8875552e-06
4.7360944e-06
4.8535712e-06
4.8307216e-06
4.7817936e-06
4.956608e-06
4.8986896e-06
5.0161024e-06
5.0793552e-06
4.84608e-06
4.807368e-06
5.5150736e-06
5.3111056e-06
5.0071888e-06
4.8956144e-06
4.895072e-06
4.8243664e-06
4.8716544e-06
4.8604944e-06
4.8477712e-06
4.9046304e-06
4.6341808e-06
4.952952e-06
4.727104e-06
4.7542288e-06
4.9396352e-06
5.0884096e-06
4.8189808e-06
4.7977584e-06
4.974704e-06
5.1558736e-06
4.7542416e-06
4.8833312e-06
4.9406688e-06
4.9194208e-06
4.9199632e-06
4.9258016e-06
4.714872e-06
4.8206208e-06
4.5878752e-06
4.7392464e-06
4.6994112e-06
4.5400064e-06
4.780192e-06
4.8583632e-06
4.9497232e-06
4.9359024e-06
5.042672e-06
5.0384224e-06
5.064488e-06
4.9237088e-06
5.0347792e-06
4.6798288e-06
4.8668624e-06
5.0087264e-06
5.0899984e-06
4.943368e-06
4.5995648e-06
4.582592e-06
4.625088e-06
4.5517728e-06
4.5969424e-06
4.5384688e-06
4.5740672e-06
4.3514096e-06
4.4422656e-06
4.7886656e-06
4.8269504e-06
4.7839376e-06
4.824328e-06
4.8291584e-06
4.6776976e-06
4.3997824e-06
4.4577136e-06
4.620296e-06
4.6920352e-06
4.7255152e-06
4.397664e-06
4.4512944e-06
4.5884048e-06
4.7893104e-06
4.780256e-06
4.7930176e-06
4.8775056e-06
4.982208e-06
5.0448672e-06
4.914176e-06
4.9078592e-06
4.8599648e-06
4.9290432e-06
4.939648e-06
4.4954048e-06
4.6665504e-06
4.4810928e-06
4.4662e-06
4.4582304e-06
4.7244816e-06
4.9269632e-06
4.9684128e-06
4.8159056e-06
4.7882512e-06
4.61664e-06
4.7430944e-06
4.781328e-06
4.7345696e-06
4.849864e-06
4.6808496e-06
4.7270656e-06
4.5187456e-06
4.445456e-06
4.526728e-06
4.8174688e-06
4.8476944e-06
4.7105584e-06
4.6696512e-06
4.62288e-06
4.5671312e-06
4.49596e-06
4.6808624e-06
4.8476944e-06
4.9067104e-06
5.0858128e-06
5.034288e-06
5.01304e-06
5.086872e-06
4.8992704e-06
5.1107296e-06
4.8593584e-06
4.8041392e-06
4.641544e-06
4.8413648e-06
4.3482448e-06
4.4847872e-06
4.6654784e-06
4.6442048e-06
4.655352e-06
4.8030672e-06
5.0995568e-06
5.1346384e-06
4.908816e-06
4.7732816e-06
4.8498512e-06
4.8270016e-06
4.6888704e-06
4.6224272e-06
4.6575472e-06
4.59804e-06
4.6410912e-06
4.5954048e-06
4.4784576e-06
4.3732e-06
4.3807296e-06
4.5417232e-06
4.5517984e-06
4.7844928e-06
4.726032e-06
4.8769376e-06
4.6718464e-06
4.537888e-06
4.5097424e-06
4.4900832e-06
4.7021488e-06
4.7781376e-06
4.5868416e-06
4.7239648e-06
4.6686816e-06
4.5013328e-06
4.2127744e-06
4.1622832e-06
4.2643504e-06
4.3663536e-06
4.6596144e-06
4.7621216e-06
4.6388704e-06
4.6006368e-06
4.7515296e-06
4.6457808e-06
4.568216e-06
4.6304096e-06
4.5151024e-06
4.377992e-06
4.2244128e-06
4.2142864e-06
4.0617664e-06
4.0559664e-06
4.0862688e-06
4.2180704e-06
4.3625824e-06
4.5831344e-06
4.8551984e-06
4.7536864e-06
4.9120192e-06
4.8987536e-06
4.9816656e-06
5.057112e-06
5.0539216e-06
5.0576288e-06
4.9779328e-06
5.0092688e-06
5.3806752e-06
5.4019616e-06
5.3679648e-06
5.0927488e-06
5.1645264e-06
5.0645904e-06
5.0469856e-06
5.0910448e-06
5.0384608e-06
5.0315504e-06
4.9034816e-06
4.8838352e-06
4.8912624e-06
4.956104e-06
4.8562192e-06
4.9560784e-06
4.9342624e-06
4.7716672e-06
4.8572528e-06
5.052824e-06
5.141032e-06
5.2085088e-06
4.9863552e-06
4.9310848e-06
4.923632e-06
5.0538576e-06
4.8710864e-06
4.6952e-06
4.7217568e-06
4.6064624e-06
4.746712e-06
4.8243152e-06
5.2531232e-06
5.1399472e-06
4.9736704e-06
4.9593072e-06
4.795136e-06
4.7382512e-06
4.915752e-06
4.9673024e-06
4.96304e-06
5.2366416e-06
5.2849888e-06
5.003896e-06
4.9284496e-06
4.7573296e-06
4.9523584e-06
4.957176e-06
4.9609216e-06
5.1207664e-06
5.1962384e-06
5.1840448e-06
5.05276e-06
5.3211168e-06
5.2047504e-06
5.0549168e-06
4.9715008e-06
4.7764848e-06
4.859952e-06
4.8881104e-06
5.0841984e-06
5.085296e-06
5.0305424e-06
5.1267328e-06
5.0231024e-06
4.858376e-06
4.8583504e-06
4.946584e-06
5.0894688e-06
5.1505776e-06
5.0766688e-06
5.043176e-06
4.8099904e-06
4.58896e-06
4.6777104e-06
4.9184e-06
4.927416e-06
4.8917664e-06
4.8083248e-06
4.9161664e-06
4.8285264e-06
4.8556e-06
4.9975152e-06
4.945448e-06
4.9423088e-06
4.9561424e-06
4.9715136e-06
4.8721712e-06
4.7849968e-06
4.5554032e-06
4.6930816e-06
4.7722736e-06
4.991728e-06
4.811088e-06
4.868968e-06
4.9625104e-06
5.2558224e-06
5.3377008e-06
5.073568e-06
4.9476688e-06
4.8312768e-06
4.9917536e-06
5.1628096e-06
5.2228848e-06
5.2265792e-06
5.074072e-06
5.0592432e-06
4.9274544e-06
4.8488176e-06
4.93864e-06
4.8902672e-06
4.8504064e-06
4.6176352e-06
4.8163584e-06
4.67288e-06
4.636752e-06
4.6819472e-06
4.6007008e-06
4.6060096e-06
4.7855904e-06
4.8142912e-06
4.7287312e-06
4.70428e-06
4.6245072e-06
4.8083632e-06
4.7647952e-06
4.7339376e-06
4.78448e-06
4.852512e-06
5.040088e-06
4.8546176e-06
4.8466224e-06
4.6664736e-06
4.7318064e-06
4.6845184e-06
4.7865472e-06
5.0910704e-06
4.9927872e-06
5.0029008e-06
4.79936e-06
4.612288e-06
4.6659824e-06
4.7085168e-06
4.5820496e-06
4.6277616e-06
4.5958576e-06
4.3849152e-06
4.4051168e-06
4.4885328e-06
4.5793632e-06
4.6489328e-06
4.8609728e-06
4.7611648e-06
4.6097168e-06
4.6984288e-06
4.5129584e-06
4.257312e-06
4.2339456e-06
4.4363376e-06
4.2870464e-06
4.5059712e-06
4.6059072e-06
4.779624e-06
4.6350864e-06
4.6824e-06
4.9023712e-06
4.7366368e-06
4.9040496e-06
4.9322464e-06
4.9083888e-06
4.9152736e-06
4.8058048e-06
4.5245328e-06
4.4002224e-06
4.49804e-06
4.5862352e-06
4.5973824e-06
4.4990608e-06
4.5920352e-06
4.7456272e-06
4.7195872e-06
4.7578208e-06
4.6377216e-06
4.6775824e-06
4.54104e-06
4.4571328e-06
4.571936e-06
4.636752e-06
4.6994496e-06
4.5851632e-06
4.5894256e-06
4.5287952e-06
4.5756816e-06
4.7462208e-06
4.6681392e-06
4.4933248e-06
4.414184e-06
4.522064e-06
4.4380544e-06
4.5198944e-06
4.5836256e-06
4.3939184e-06
4.5735376e-06
4.733472e-06
4.6819344e-06
4.6404464e-06
4.5469168e-06
4.6596272e-06
4.748352e-06
4.5836256e-06
4.5171952e-06
4.371624e-06
4.6213296e-06
4.8169008e-06
4.7781376e-06
4.873256e-06
4.7606096e-06
4.6484544e-06
4.7181008e-06
4.7600416e-06
4.814176e-06
5.0703136e-06
5.2265408e-06
5.1096448e-06
5.1293424e-06
5.105976e-06
5.0613616e-06
5.1176912e-06
4.921616e-06
4.8652736e-06
4.7712144e-06
4.524648e-06
4.5947472e-06
4.6308752e-06
4.9204672e-06
5.0862528e-06
5.1920144e-06
5.0049808e-06
4.8407584e-06
4.5591488e-06
4.5703472e-06
4.6150128e-06
4.5187968e-06
4.599552e-06
4.612792e-06
4.5023024e-06
4.409328e-06
4.3466176e-06
4.2929744e-06
4.5650384e-06
4.6516448e-06
4.6760576e-06
4.4332112e-06
4.4045232e-06
4.4338048e-06
4.3562528e-06
4.3801744e-06
4.725024e-06
5.1341856e-06
5.1389904e-06
5.053392e-06
4.9125744e-06
4.6898784e-06
4.6888064e-06
4.6547584e-06
4.5091744e-06
4.6590336e-06
4.7307344e-06
4.7232944e-06
4.7764336e-06
4.6202832e-06
4.5698176e-06
4.8211248e-06
4.8976944e-06
4.6064752e-06
4.2254464e-06
4.1925216e-06
4.2552064e-06
4.2174512e-06
4.0718672e-06
4.3614976e-06
4.420488e-06
4.3859744e-06
4.400312e-06
4.3875504e-06
4.3854192e-06
4.5878624e-06
4.6425904e-06
4.8615152e-06
4.819536e-06
4.8444912e-06
4.9242128e-06
4.6787056e-06
4.6000816e-06
4.893368e-06
4.7907968e-06
4.686688e-06
4.6766256e-06
4.6840528e-06
4.6824512e-06
4.722312e-06
4.8652352e-06
4.8328016e-06
4.476288e-06
4.4093536e-06
4.7398912e-06
4.6346592e-06
4.6038528e-06
4.610208e-06
4.5432224e-06
4.6452512e-06
4.485304e-06
4.878048e-06
4.759576e-06
4.7781504e-06
4.858376e-06
4.7781248e-06
4.6744688e-06
4.5506752e-06
4.5777872e-06
4.4609168e-06
4.5374736e-06
4.545456e-06
4.4120144e-06
4.4858464e-06
4.6192496e-06
4.5140432e-06
4.6468784e-06
4.715944e-06
4.7807728e-06
4.9311488e-06
4.7350992e-06
5.1282704e-06
5.1638688e-06
5.1394048e-06
5.1075776e-06
5.1697968e-06
5.2000352e-06
5.076784e-06
5.0539344e-06
5.1623184e-06
5.0076288e-06
4.8333184e-06
4.8232432e-06
4.8673792e-06
4.7584272e-06
4.9789536e-06
5.0931888e-06
5.1431504e-06
5.0846896e-06
5.1032768e-06
5.0974384e-06
4.9300256e-06
4.7727648e-06
4.6563856e-06
5.0065952e-06
4.9449824e-06
4.9810848e-06
4.8169136e-06
4.7536224e-06
4.8742256e-06
4.8704928e-06
4.7928896e-06
5.1898576e-06
5.2434752e-06
5.3652272e-06
5.4438768e-06
5.5001552e-06
5.1207536e-06
4.9501888e-06
4.8641376e-06
4.738768e-06
4.9290304e-06
4.6941152e-06
4.5319984e-06
4.246656e-06
4.4273216e-06
4.6446704e-06
4.8784752e-06
4.8758528e-06
4.8030544e-06
4.8434832e-06
4.7510256e-06
4.6298928e-06
4.87004e-06
4.9151968e-06
5.2584448e-06
5.17716e-06
5.22552e-06
5.153832e-06
5.4407248e-06
5.1102256e-06
4.9082864e-06
4.9417664e-06
4.6117968e-06
4.5958576e-06
4.549616e-06
4.7589568e-06
4.8987024e-06
5.0899728e-06
5.12552e-06
4.9608192e-06
4.9507568e-06
5.1952176e-06
5.0985104e-06
4.9922832e-06
4.9482112e-06
4.7563472e-06
5.0023968e-06
5.012472e-06
4.8227264e-06
4.9343264e-06
4.5060224e-06
4.5734992e-06
4.5836384e-06
4.4938288e-06
4.4087856e-06
4.6160336e-06
4.8844288e-06
4.9689424e-06
4.8743536e-06
4.8897632e-06
4.6633472e-06
4.4608912e-06
4.4523664e-06
4.709576e-06
4.5947856e-06
4.6043568e-06
4.837632e-06
4.5788208e-06
4.5495776e-06
4.4985952e-06
4.5873712e-06
4.4673104e-06
4.5151152e-06
4.8684768e-06
4.7180752e-06
4.8211504e-06
4.7064112e-06
4.8078976e-06
4.9476304e-06
5.0480576e-06
5.0199248e-06
4.683536e-06
4.8535968e-06
4.7685664e-06
4.584168e-06
4.6112544e-06
4.4954048e-06
4.3987104e-06
4.475784e-06
4.5108912e-06
4.525656e-06
4.761592e-06
5.052824e-06
5.0140352e-06
5.0847024e-06
5.1001504e-06
4.9162816e-06
4.9316528e-06
4.9210352e-06
4.8806448e-06
4.8492576e-06
5.033656e-06
4.9618784e-06
5.1032128e-06
5.0102256e-06
4.7896864e-06
4.4443584e-06
4.40296e-06
4.2413984e-06
4.5283296e-06
4.998096e-06
4.9699632e-06
4.8498768e-06
4.8929536e-06
4.915312e-06
4.7925136e-06
4.7244816e-06
5.0039344e-06
5.0804528e-06
5.0262416e-06
4.9268608e-06
5.0495952e-06
5.1510816e-06
4.8205696e-06
5.0639328e-06
5.0798592e-06
5.1154448e-06
4.9868592e-06
4.9502272e-06
4.9071888e-06
4.909384e-06
5.109192e-06
4.8030672e-06
4.7913776e-06
5.0204032e-06
4.9848176e-06
4.978424e-06
4.9640608e-06
4.8306704e-06
4.8652096e-06
5.1957088e-06
5.2281168e-06
5.0362912e-06
5.1213472e-06
5.002888e-06
4.9093968e-06
5.034792e-06
5.1517136e-06
5.0927488e-06
4.99444e-06
4.8673536e-06
4.7982624e-06
4.67124e-06
4.9369232e-06
5.000176e-06
4.8758528e-06
4.887504e-06
4.7456656e-06
4.8541008e-06
4.6330064e-06
4.6749984e-06
4.6755536e-06
5.0916128e-06
5.234032e-06
5.2568304e-06
4.8795472e-06
4.59104e-06
4.74728e-06
4.8742896e-06
4.8897248e-06
5.0947776e-06
4.6994752e-06
4.7265616e-06
4.691984e-06
4.937504e-06
5.0820416e-06
5.0947776e-06
5.1946752e-06
4.9157136e-06
4.954528e-06
5.0528496e-06
5.026784e-06
4.9454992e-06
4.77704e-06
4.834416e-06
4.7706208e-06
5.0219408e-06
4.8800768e-06
4.9720176e-06
4.9778688e-06
4.8274672e-06
4.97256e-06
4.930064e-06
4.7180112e-06
4.659576e-06
4.882208e-06
4.9884992e-06
5.0746528e-06
5.0603152e-06
5.0172384e-06
4.9061808e-06
4.916824e-06
4.9932912e-06
4.999168e-06
4.9284624e-06
4.952384e-06
4.7222864e-06
4.789208e-06
4.773256e-06
4.6505216e-06
5.229808e-06
5.1558992e-06
5.0544e-06
5.2962128e-06
4.9407456e-06
4.9195104e-06
4.9195232e-06
4.9874912e-06
4.8615152e-06
4.9013376e-06
4.9220304e-06
4.966192e-06
4.6893616e-06
4.7361712e-06
4.777608e-06
4.8668624e-06
4.9423216e-06
4.8982496e-06
5.1288512e-06
4.9641504e-06
4.945952e-06
4.8312e-06
5.075648e-06
4.997528e-06
4.9932656e-06
4.9146544e-06
4.7849968e-06
4.579376e-06
4.7281504e-06
4.9040368e-06
4.9221328e-06
4.9093456e-06
4.8929024e-06
4.9949056e-06
4.9098752e-06
4.8142016e-06
4.8848304e-06
4.7275952e-06
4.8301664e-06
4.7812512e-06
4.9162816e-06
4.9358896e-06
4.8790176e-06
4.8317936e-06
5.0236064e-06
5.1277792e-06
5.1936672e-06
4.8647568e-06
4.5485568e-06
4.474144e-06
4.6686432e-06
4.917328e-06
4.9444656e-06
4.6511792e-06
4.5815584e-06
4.7271552e-06
4.7430816e-06
4.9699504e-06
4.9321824e-06
4.8987024e-06
4.9662176e-06
4.771176e-06
4.7494112e-06
4.6154656e-06
4.7036736e-06
4.5617712e-06
4.7488304e-06
5.124008e-06
5.0709072e-06
5.1474e-06
4.8827888e-06
4.6537888e-06
4.5225296e-06
4.5384176e-06
4.5947216e-06
4.4480144e-06
4.469856e-06
4.6016576e-06
4.799864e-06
4.898728e-06
4.6235248e-06
4.638392e-06
4.7048096e-06
4.8695104e-06
4.8360432e-06
4.7903568e-06
4.848224e-06
5.1627584e-06
4.87584e-06
4.8455888e-06
4.8573424e-06
4.7988944e-06
4.7154528e-06
4.7271552e-06
4.8159056e-06
4.5704112e-06
4.686752e-06
4.7483904e-06
4.7781632e-06
4.7064368e-06
4.5915824e-06
4.542176e-06
4.6537248e-06
4.4613696e-06
4.4565648e-06
4.5915568e-06
4.6797776e-06
4.5480144e-06
4.5543696e-06
4.8343776e-06
5.042672e-06
5.179744e-06
5.0580944e-06
5.018776e-06
4.7525888e-06
4.6904336e-06
4.58524e-06
4.5416976e-06
4.7558432e-06
4.7164864e-06
4.5714192e-06
4.8551728e-06
4.8078976e-06
4.8668496e-06
4.79772e-06
4.6239392e-06
4.5942048e-06
4.4895024e-06
4.7456912e-06
4.6845824e-06
4.8237856e-06
4.6192368e-06
4.6245328e-06
4.6973312e-06
4.925272e-06
4.7877088e-06
4.9077824e-06
4.7143296e-06
4.4869056e-06
4.4120144e-06
4.4853296e-06
4.6989328e-06
4.9019056e-06
5.0910704e-06
5.2441328e-06
4.9896224e-06
5.0326736e-06
4.908312e-06
4.867392e-06
4.9465072e-06
4.9247296e-06
4.9146544e-06
5.0379696e-06
4.979496e-06
4.6335104e-06
4.77912e-06
4.6106992e-06
4.5820368e-06
4.441232e-06
4.5070944e-06
5.2578512e-06
5.2445216e-06
5.1643088e-06
5.0309568e-06
5.1287104e-06
5.0022688e-06
4.947024e-06
4.841352e-06
4.89236e-06
4.732968e-06
4.6787696e-06
4.5607632e-06
4.5931712e-06
4.413048e-06
4.6207744e-06
4.6042672e-06
4.7615408e-06
4.7716544e-06
4.7998256e-06
4.9209712e-06
4.4534256e-06
4.5900192e-06
4.6367648e-06
4.6144448e-06
4.6367904e-06
4.6298544e-06
4.6744944e-06
4.858816e-06
4.882208e-06
5.09368e-06
5.1723936e-06
5.3615712e-06
5.2005648e-06
5.2287104e-06
5.2170208e-06
5.3185328e-06
5.1989632e-06
5.1888624e-06
5.0575904e-06
4.7754128e-06
4.8822208e-06
4.906672e-06
4.8541264e-06
4.9742128e-06
4.8886144e-06
4.8195872e-06
4.9529264e-06
4.9651584e-06
4.8673792e-06
4.9045664e-06
4.8588416e-06
4.8381232e-06
4.7504832e-06
4.6442048e-06
4.5830704e-06
4.5697792e-06
4.6861328e-06
4.8391184e-06
4.9390416e-06
4.8444656e-06
4.9662304e-06
4.9104176e-06
4.8769376e-06
4.8561808e-06
4.7913776e-06
4.7180368e-06
4.834416e-06
4.6797904e-06
4.8450592e-06
4.927416e-06
4.7520208e-06
4.6664992e-06
4.8322848e-06
4.9241488e-06
4.987376e-06
4.8816016e-06
4.9719408e-06
4.8125488e-06
4.8811488e-06
4.9125104e-06
4.8541008e-06
4.8386656e-06
4.7440512e-06
4.5830448e-06
4.4932736e-06
4.6213168e-06
4.6760448e-06
4.7307984e-06
4.656424e-06
4.6479632e-06
4.7856032e-06
4.5539552e-06
4.66872e-06
4.7983776e-06
4.678808e-06
4.9683872e-06
4.8328912e-06
4.8365856e-06
4.7876832e-06
4.7552752e-06
4.6962592e-06
4.7764848e-06
4.7626896e-06
4.9608704e-06
4.8024736e-06
4.634608e-06
4.6548224e-06
4.520424e-06
4.5523152e-06
4.6065264e-06
4.5725296e-06
4.4535152e-06
4.4598576e-06
4.4295424e-06
4.3950032e-06
4.3376144e-06
4.2961776e-06
4.351952e-06
4.4895408e-06
4.6659568e-06
4.6437136e-06
4.8519696e-06
5.0066464e-06
5.1007056e-06
4.9907328e-06
5.1320544e-06
4.8636848e-06
4.9088288e-06
4.6771296e-06
4.6867136e-06
4.6261344e-06
4.5416464e-06
4.73404e-06
4.5204624e-06
4.5932864e-06
4.5534256e-06
4.572e-06
4.5772832e-06
4.597472e-06
4.5698304e-06
5.05812e-06
4.9556256e-06
4.7776208e-06
4.5374096e-06
4.3556848e-06
4.3211328e-06
4.4885328e-06
4.444952e-06
4.3137056e-06
4.5236016e-06
4.586312e-06
4.5783552e-06
4.5310288e-06
4.688768e-06
4.7174688e-06
4.6765872e-06
4.4512816e-06
4.5655424e-06
4.9470752e-06
5.1930608e-06
4.5421632e-06
4.6069792e-06
4.648416e-06
4.8333184e-06
4.8758528e-06
5.144184e-06
5.0362912e-06
4.773256e-06
5.0017904e-06
5.0299744e-06
4.9885376e-06
4.7036864e-06
4.7244432e-06
4.8960544e-06
4.7281248e-06
4.775968e-06
4.8652352e-06
4.705856e-06
4.7154144e-06
4.7058688e-06
4.6489968e-06
4.7233328e-06
4.5431968e-06
4.6239648e-06
4.6484032e-06
4.5570176e-06
4.661152e-06
4.8774288e-06
4.767456e-06
4.5044464e-06
4.5485568e-06
4.7132576e-06
4.757368e-06
4.9709968e-06
5.0623952e-06
4.9375424e-06
4.7824e-06
4.7913904e-06
4.8971264e-06
4.8509104e-06
4.6750112e-06
4.4449648e-06
4.8020848e-06
4.960392e-06
4.8669136e-06
4.7877216e-06
4.5507264e-06
4.4847744e-06
4.4858336e-06
4.5134752e-06
4.6000304e-06
4.7812384e-06
4.8763312e-06
4.6754896e-06
4.5049504e-06
4.6181776e-06
4.8976944e-06
4.9003168e-06
4.839208e-06
4.7042416e-06
4.129256e-06
4.2578544e-06
4.4348256e-06
4.5926416e-06
4.4970192e-06
4.6394384e-06
4.6580384e-06
4.6702192e-06
4.8205824e-06
4.7158928e-06
4.5841168e-06
4.6734096e-06
4.4492016e-06
4.7345824e-06
4.9907328e-06
5.1681568e-06
4.9587648e-06
4.7770016e-06
4.545832e-06
4.1542496e-06
4.8918304e-06
4.8695232e-06
4.7727776e-06
4.5235888e-06
4.7249856e-06
4.3949904e-06
4.325408e-06
4.4109552e-06
4.3811952e-06
4.6261472e-06
4.7074192e-06
4.7966864e-06
4.8014528e-06
4.5830576e-06
4.465064e-06
4.5187584e-06
4.5065392e-06
4.4289616e-06
4.7185408e-06
4.7876704e-06
4.9566464e-06
4.9332672e-06
5.0470368e-06
4.890784e-06
4.9327376e-06
4.9842368e-06
4.9305552e-06
4.9093328e-06
4.543184e-06
4.4767664e-06
4.242936e-06
4.2514608e-06
4.4725168e-06
4.51872e-06
4.8402544e-06
4.5288976e-06
4.7829424e-06
5.0826352e-06
4.8440512e-06
4.9285392e-06
4.8259296e-06
4.7116816e-06
4.6383664e-06
4.712224e-06
4.8790688e-06
4.8636464e-06
4.7701168e-06
4.6096912e-06
4.811088e-06
4.8169392e-06
4.9232176e-06
4.6904464e-06
4.6563728e-06
4.5358208e-06
4.3886096e-06
4.3859104e-06
4.513992e-06
4.7483392e-06
4.789776e-06
4.9114512e-06
4.9411984e-06
4.8205824e-06
4.72496e-06
4.7716928e-06
4.7047584e-06
4.8169008e-06
4.8248704e-06
4.866824e-06
4.8901776e-06
4.7637488e-06
4.9561296e-06
5.0804656e-06
5.0916128e-06
5.0804656e-06
5.2037296e-06
5.0039088e-06
4.7477712e-06
4.7472416e-06
4.8577696e-06
4.8657392e-06
5.0081584e-06
5.1160128e-06
5.3439536e-06
5.2552288e-06
5.167008e-06
5.0942096e-06
5.0075904e-06
5.1239952e-06
4.804088e-06
4.7238752e-06
4.6053904e-06
4.6048608e-06
4.4868928e-06
4.5687584e-06
4.688832e-06
4.6766256e-06
4.9290176e-06
5.1065184e-06
5.2372352e-06
5.1569712e-06
5.0129376e-06
5.1229488e-06
4.9029776e-06
5.0437568e-06
4.7663712e-06
4.6159312e-06
4.6350992e-06
4.6680368e-06
4.8094352e-06
4.7951104e-06
4.9135824e-06
4.7929024e-06
4.839208e-06
5.0932144e-06
5.0464816e-06
4.8413904e-06
4.7760064e-06
4.8848944e-06
4.8423728e-06
5.0596832e-06
4.5612928e-06
4.4831728e-06
4.7568384e-06
4.6888448e-06
4.6123392e-06
4.6638384e-06
4.7079104e-06
4.7807088e-06
4.5575344e-06
4.7881872e-06
4.9737216e-06
4.7792608e-06
4.8243536e-06
4.8657776e-06
4.7562832e-06
4.8795856e-06
4.7414416e-06
4.6999792e-06
4.7329168e-06
4.6473696e-06
4.843432e-06
4.9039984e-06
4.9991168e-06
5.2100848e-06
5.1936032e-06
4.7451488e-06
4.7711632e-06
4.910392e-06
4.9194336e-06
4.8348944e-06
4.609576e-06
4.7790816e-06
4.650496e-06
4.6755152e-06
4.534736e-06
4.6489712e-06
4.766384e-06
4.7360944e-06
4.7265104e-06
4.5809008e-06
4.8167856e-06
4.7126896e-06
4.7552368e-06
4.866256e-06
4.6962464e-06
4.7392976e-06
4.7058304e-06
4.7712016e-06
4.9438208e-06
4.707936e-06
4.8971008e-06
4.825904e-06
4.6771296e-06
4.7116688e-06
4.719664e-06
4.7016064e-06
4.7340016e-06