/*--------------------------------*- C++ -*----------------------------------*\
| =========                 |                                                 |
| \\      /  F ield         | OpenFOAM: The Open Source CFD Toolbox           |
|  \\    /   O peration     | Version:  2.4.0-MNF                             |
|   \\  /    A nd           | Web:      www.OpenFOAM.org                      |
|    \\/     M anipulation  |                                                 |
\*---------------------------------------------------------------------------*/
FoamFile
{
    version     2.0;
    format      ascii;
    class       volScalarField;
    location    "0.0008";
    object      rotationalT_N2;
}
// * * * * * * * * * * * * * * * * * * * * * * * * * * * * * * * * * * * * * //

dimensions      [0 0 0 1 0 0 0];

internalField   nonuniform List<scalar> 
5120
(
294.8765894
305.350006
318.2661384
302.204489
301.7690809
296.5491054
289.9859768
294.9447609
313.0803059
301.8128885
301.8649614
304.2690603
309.8335197
295.5846917
274.9406316
283.8584408
282.030572
278.5907798
284.1179161
281.1132656
299.5949189
306.5757005
290.8822966
295.8659345
297.5561217
305.1334639
318.391193
329.2024337
327.6238029
335.5540936
320.2364473
309.7774339
311.0997844
312.0198783
311.0436299
307.7202678
290.5664781
286.4091064
287.2410559
290.9354875
298.5992974
286.5357801
286.0198533
296.6689632
306.1441636
312.7649407
325.9584759
302.2975189
308.3853656
294.2429294
298.1653688
289.7664687
290.748924
281.8809329
295.1548247
297.4484584
305.7117866
292.0706605
293.8905648
299.5534845
330.9530596
329.7450069
320.9182426
315.3959416
296.2662092
299.0857773
296.5000388
303.0951749
304.1203236
330.7363896
312.4359804
312.8182853
297.1645752
286.6458417
300.7307445
295.7147756
300.4137192
309.5049579
319.7463355
327.5396406
316.9212289
307.1237336
302.635376
300.1262349
294.4894819
292.3115211
303.4664453
313.98808
296.446546
261.2927747
253.8073077
270.287976
293.6718671
313.7776414
330.1984627
324.7166363
341.4164388
325.8415828
328.5765996
336.4277225
286.7080138
274.8452209
292.2837898
300.7957917
309.1002977
313.3602733
308.5483434
331.6849085
327.4086358
334.4998345
333.3709703
332.4481025
320.5442306
319.2708979
331.0922797
340.9058791
330.7945558
341.7626433
317.5542644
301.5166464
321.1572001
322.3696777
315.7382236
328.6838327
326.3059247
326.3809557
336.7915481
333.6182288
321.2226495
311.0346331
298.6470052
301.676997
319.6166613
315.9784465
311.5585067
321.4916801
330.9516784
317.5040841
320.1904049
326.345031
288.4821252
283.7142823
286.341429
279.2907467
279.5822639
277.7116515
266.9847488
277.5817873
268.4590674
274.5605301
285.2710007
283.1422658
271.2017272
269.8892287
276.5671425
279.6706565
281.822691
284.4024164
292.7860603
283.0313851
288.0286021
296.6681835
294.6504947
293.7704879
302.7005663
290.373662
291.1942494
294.5662041
292.0860521
275.8177886
280.3296992
279.9689005
287.0887434
291.0736709
287.1932479
267.3809436
268.4437254
277.0552633
277.0548382
288.2937052
278.5769414
275.8557602
289.5806138
278.9392179
281.8695141
298.5041443
303.5555155
291.7177539
294.206354
291.071498
300.2976258
308.7122572
324.1217248
311.8709799
306.9981665
302.7954134
294.472176
294.0070043
286.5000159
273.864427
321.2504734
311.4106807
321.4878704
326.3851243
330.5145589
313.8250311
312.2583503
313.8031354
311.7060142
292.0656609
294.9502396
294.1868792
273.3368197
275.0663357
299.2361602
310.0603761
314.0190423
310.2271422
314.5976558
312.2282041
306.5637419
299.2043744
290.9026081
290.0025989
291.3796885
291.5833129
290.7101854
273.9065625
279.2065403
291.1788362
293.2565308
301.758595
316.5216453
325.1261947
331.1538096
318.2446411
302.4553929
293.0311339
297.4047131
305.889297
303.7903068
303.7889384
307.7591823
310.7009044
300.0185508
302.8424048
309.2913088
303.2984354
306.2209397
277.181564
280.213442
289.7359221
294.8038981
300.8909067
293.7434831
302.1567769
302.2394416
310.2088531
319.6446331
317.1714801
305.1293279
319.0507229
312.8923669
304.7202198
307.9383332
316.0962039
318.3286311
303.4265876
310.4345557
296.0792914
301.3895504
299.9747011
292.2842747
295.8154772
285.1976299
295.9375522
287.899162
305.1853169
299.9723792
308.1926265
313.9518218
307.4238413
314.3322964
302.5652454
299.5832975
278.4795748
300.1601205
311.4330469
318.7368382
317.7230023
309.022127
308.4029932
310.7010854
321.6912939
322.5057282
321.5768924
325.5251957
326.2829777
337.8896424
316.2505567
280.0099736
275.7342676
274.4246566
297.0642041
282.9410135
303.2606831
303.0878118
313.2367335
319.0011266
328.3289196
308.4145127
303.5452953
302.8339102
304.9624495
310.2518036
309.3939574
313.1366237
312.5015786
293.4030051
287.4989454
280.0174936
270.8168698
279.1067994
290.9913887
286.6890172
292.7478901
293.5978624
294.8194065
307.1827089
321.267715
341.063972
329.908334
305.9097456
309.2880381
308.3679931
292.6525706
286.9281627
298.3050805
294.24367
288.1243695
331.1132658
328.3893278
328.1719848
314.1847457
324.4351706
315.5606454
309.5246204
304.0845095
303.350718
295.3098233
293.8891511
298.1198806
298.6396789
302.7113428
302.4745611
299.3265835
294.8185324
294.5376963
328.6306957
342.2119541
282.8818305
288.4782081
286.1115263
295.6417007
306.0703685
298.0188006
292.2754957
292.7669486
279.8843427
279.5050218
288.0264412
292.829407
292.2585388
302.7502611
317.081134
329.4508674
326.9810671
324.9229836
316.8906518
286.5474294
321.1228001
322.689821
316.5794565
309.6609155
307.1011938
308.8655356
298.0522865
298.0907688
309.1652855
301.1956546
316.1399244
308.9152646
304.7797185
307.9224491
304.0138246
295.7935756
290.4262438
296.5291028
299.5562372
302.049137
303.2882444
288.2121815
312.7470725
314.785532
313.6768324
314.9363547
304.8287997
311.9215669
309.2484208
312.0282869
307.2569432
306.7332898
298.2558513
283.3017579
297.009482
313.8979605
293.4253319
291.7247167
300.7408356
303.9673099
306.9136997
303.7378767
291.7251611
301.077568
304.3221183
291.2265174
289.0193411
287.1634672
298.7039194
300.1320375
320.4176021
317.2975775
314.4629965
313.9137477
311.0671001
296.8534089
291.7394256
292.7697748
309.3506798
322.1912616
293.3732605
309.1152799
314.4053954
309.1457453
290.6592454
302.0180022
287.7744543
288.9635906
296.2037343
297.5168746
288.231113
300.4506577
315.3041652
320.148591
333.8021767
312.9030795
312.6121515
325.660926
294.3756494
288.3123709
307.6491505
302.4750917
307.9772115
296.9722642
303.3221655
315.8333714
320.910322
293.6896425
281.8744831
288.8423192
289.0199214
285.3821527
293.1821474
291.9958835
303.1099114
308.3015126
303.712798
291.6397348
290.4742424
304.9760527
296.8372159
298.3308496
288.771598
273.8214138
293.040161
291.6802275
302.1038124
312.8652718
312.0704981
303.6494629
306.7740188
301.5021739
293.5008384
289.0967741
282.705076
283.1421688
281.7937452
275.8871556
285.1909549
286.3462109
295.3135956
295.2823351
299.6880246
319.9739303
317.124211
316.9553851
317.4937348
312.4429828
314.0464423
297.9486357
300.6072437
303.8560051
295.5328529
309.2561118
310.2316334
303.6541108
300.4433303
303.0155553
295.9973974
285.9820878
293.9181578
303.7489326
320.5666586
313.3635167
308.7093851
301.7115419
302.485554
305.200264
304.2032656
313.9474123
304.6301667
296.5975276
286.0735608
288.5993905
288.0112835
290.1238896
300.9563617
296.7965333
295.400117
282.5738045
292.8863988
288.3109548
282.4185764
300.3497278
281.3263143
282.8995872
279.3101631
285.7936197
289.5665541
297.1836446
308.5267345
317.5117237
321.6690511
332.3793295
333.6641662
333.574317
334.4939698
324.8884324
325.7346826
322.7508355
304.5652182
309.9140693
305.7005479
305.7739352
304.6464123
289.7011506
272.3261776
264.3572803
281.4124118
311.2620149
314.1433302
311.9318542
316.4178788
309.5789467
300.4950056
298.542607
333.6078282
325.9381519
317.2170323
305.8261828
328.8883379
316.6194821
329.9619602
326.9297464
320.9905264
315.6836593
311.4382898
308.2914556
308.9647513
316.8909717
300.4341437
307.1290892
303.9032417
306.0555679
305.6258537
312.1941588
322.1019741
324.2380866
324.1543137
330.5990692
324.132665
321.4055794
313.7503295
325.4102576
314.8499332
332.5912767
325.4736753
306.3936934
294.0223544
286.329851
292.7336112
296.3447712
302.6487631
301.5706478
294.2911096
303.8444002
296.1328433
309.5344144
305.1331995
317.1258914
298.686459
300.2905779
300.9575381
296.0204428
289.8246855
299.0835939
295.1689524
301.7412687
310.6483024
302.3847423
308.7169301
312.0299203
316.2340667
294.1092213
279.3640776
284.2425989
279.4173083
287.9505093
287.0535957
289.7634938
302.1961683
299.0034134
307.7626357
309.4308749
312.2085445
308.6947681
299.8691537
306.4763599
305.0080588
303.9604203
304.0559124
315.5125036
319.4630637
304.5906912
302.5808209
290.1922085
281.2299529
278.3046415
278.2551496
307.9840177
312.7864073
327.366602
325.9829114
309.6667877
304.2012139
299.1480718
289.246621
291.7233085
288.7777572
280.8676025
276.4728929
274.3826139
278.9866507
266.7458601
272.0787884
278.0949404
279.4683015
296.8672488
284.1946582
278.9664105
297.4346571
304.5333396
296.6317087
299.6708217
286.8127879
283.5657317
275.6388034
268.9430547
271.3817687
274.6565321
274.584191
287.9337683
300.2767467
306.8737174
311.2491853
311.7887881
310.4970336
304.905452
319.9668164
308.1404593
274.3492662
251.6252792
267.2448611
278.7188671
275.3686854
288.7609588
284.2802518
292.858774
286.4789413
283.1024017
270.2135156
272.9054836
282.9962978
276.3839106
266.8808271
276.9585868
271.0631378
281.8055668
284.1718524
293.5104448
295.3556921
299.6896373
299.2496638
291.9732406
291.6004442
286.7150066
310.538204
318.9091272
318.3613454
291.5140851
288.6983551
290.5946649
291.1749866
285.0913009
287.3531634
275.0121327
280.5525
303.2619918
297.2587377
289.4440502
311.8932683
318.8519648
324.0415131
312.845803
301.1956824
312.5456779
296.0205082
303.767695
303.992339
315.569873
299.7926908
291.9101416
300.4044027
291.3614752
304.3416248
310.0716195
329.5330047
310.8741922
306.9574424
299.880987
273.1316053
269.0004446
278.7576472
281.4751792
294.8094202
303.304888
304.6830023
303.7103295
308.5520095
303.936333
309.9050662
313.136322
302.5785274
314.6481697
306.1489505
302.6703351
293.0829055
289.5775192
303.6570666
296.3985448
311.0016387
324.2377337
306.7335191
305.8154333
283.6972654
272.3568749
272.1481283
284.2827874
296.1080633
305.6379077
307.4479481
286.4462457
288.2728359
309.39336
312.7651494
298.6779589
294.72885
303.8484655
296.33961
297.8419763
317.3885732
310.4758254
303.8008037
317.3028297
306.9029593
307.3852176
304.0771553
298.6252443
295.7401323
294.6977496
306.7248384
313.7735883
312.1404078
299.0037831
297.1475264
290.4003966
283.6290916
294.31088
315.2843632
318.9089576
302.1980419
296.8976741
298.3088054
292.5069673
298.6957982
297.4932945
305.9735071
300.5749481
309.3644516
301.1407764
298.7166273
296.9657984
298.6876762
298.8996421
295.7178177
305.4611668
306.8844039
291.8172203
307.1981937
298.4116305
298.1810578
283.5150849
286.3196426
296.9967235
274.6170194
281.5225367
287.5626704
311.4188073
322.4803622
323.9075771
321.5377632
323.8771062
326.7395175
317.49502
319.8824925
309.2024284
323.3712602
308.605758
315.0411892
313.6895992
290.0804728
294.4615793
283.8141904
296.9212369
311.9867306
312.558947
326.3157346
322.5073812
312.8442236
314.2790173
302.3340644
304.9359952
289.7496597
286.560442
310.0794408
308.069955
297.7143356
280.1566299
296.2023911
279.6614653
308.9391558
317.9603395
310.230702
311.1030959
305.8105106
306.2508297
318.250921
304.5798205
306.5902936
287.1298295
287.3088414
286.3359317
298.1541239
307.1329923
303.8427458
299.0186484
284.2467049
297.7546877
305.2716473
312.4958455
329.5756905
337.0291287
318.1115064
311.7931374
325.0510285
319.4056993
321.2985513
320.6700793
311.5597368
303.2105458
288.2243362
292.5475297
298.8861804
296.8168984
298.9949288
316.2596111
314.3834699
306.6772098
308.6122226
325.4333981
332.3795697
331.8322361
327.2910345
327.6780329
315.2054407
309.7005931
297.3160865
294.2800469
291.792961
302.6112648
330.6597371
324.7578161
333.1503874
325.8522445
324.8423628
314.9118447
305.1106531
320.4624004
324.2787009
326.7632281
300.1607832
300.430212
296.0230729
296.9170275
307.1888352
322.1537156
330.4550176
315.9297198
310.4777371
313.5996267
299.531758
310.0652369
308.1246933
324.9953329
325.1156087
336.4368699
339.5747714
316.5495712
300.1655989
298.2550838
272.1062387
290.2397477
299.0081419
291.1598432
287.1963272
288.9369184
291.6493267
287.3805816
295.8856996
288.2757029
289.4553644
297.3110957
286.4408046
296.0390688
305.399638
299.9412949
316.8963669
306.2044552
297.2721685
290.7848167
300.662662
283.9897904
280.823891
286.0259445
298.2853018
307.0376866
295.782749
291.1452166
282.8358387
287.6176683
280.5891836
284.956997
278.7736448
274.8033535
269.2646164
285.839015
306.5725785
320.2503419
315.5173347
315.6712507
285.2073579
291.2514492
299.4791376
305.1878546
281.8544341
293.0537132
304.320857
306.88905
310.3348762
338.2404186
337.1681214
327.9826097
309.9586814
280.7237925
284.5729159
277.1590978
261.4124898
263.2270077
274.3459564
274.7246475
295.0415224
267.5130887
272.8486108
280.5257435
287.9756514
304.9952122
297.6997315
293.9758859
286.7236096
296.5409391
284.8286943
286.9989961
277.2357517
289.9830409
290.6936754
292.5094039
290.0631779
277.8042736
280.2288322
280.863429
303.2696957
294.948853
308.3226424
285.1301886
300.3824897
310.6738205
302.4624564
292.4551752
295.8722093
292.9045374
303.6129675
301.272684
288.6023043
286.170439
302.7532051
305.1704296
299.9385847
297.960289
298.4201293
302.4248882
314.9783046
323.3638864
324.8366476
321.5163221
318.3208013
298.0411623
300.4152281
295.1692625
292.9117778
290.446515
304.3177509
310.6814226
324.9215362
319.2299302
319.314123
314.8687193
312.5247452
310.1609499
307.5798019
304.5812368
303.9481274
303.0465587
297.8974478
305.6467392
284.9671467
283.8112487
300.7972705
294.0594711
289.1716285
289.2167535
278.9640382
293.6727427
297.4976867
304.9910073
294.4312039
310.8620206
307.4658463
282.9039831
288.4639194
302.8576146
313.8615971
315.5069161
301.5525546
297.6275336
301.704065
296.0599748
290.832662
289.6235107
295.5576058
287.7310256
289.3417145
287.6808608
298.9688486
302.6134219
310.0862587
319.608642
320.1275858
311.7677852
306.9888789
306.467341
292.3703525
293.3356764
305.0403907
312.2343891
342.8222683
319.373305
317.1212021
299.535502
280.5128698
286.7811865
284.100369
287.1469958
303.327282
303.3051531
304.8720101
310.6214956
328.5361191
318.6479291
309.4984924
302.0586826
333.3529993
322.8776029
316.289495
310.053867
306.0518462
288.8002858
284.6614389
291.3564141
289.78563
298.9015918
296.515817
306.5067209
287.7487534
288.5454025
285.8567682
293.4793066
306.5992072
305.4223544
303.1382169
316.9677937
339.2370824
337.9349502
314.361276
306.3986306
314.0320091
303.5815659
309.9757505
299.629485
303.5640651
308.7481059
275.2028861
283.0694931
281.6422899
297.4616121
318.639317
313.8538608
333.5269024
334.1130205
333.1923188
325.4480994
313.6867219
301.4972947
297.082707
288.7028893
286.4732107
286.4039328
275.5791268
285.4495655
308.865934
293.4777819
302.498971
288.4761039
295.1423318
299.0285321
315.2784301
316.6054042
302.1815203
317.4657519
317.3737639
314.4753268
309.7663148
305.9219307
300.7954505
329.302478
320.4976962
304.9491074
290.7261682
291.4531976
292.2424331
295.7178384
304.9860638
309.2777535
292.9877506
285.6001584
278.2276323
285.0225037
289.8955068
278.7707095
281.4333266
321.6461162
295.9320701
312.9037924
308.3206459
286.778326
295.459295
287.8353695
290.9788607
296.1390713
314.1595055
327.7802912
317.6880348
305.6450149
300.5371299
302.2058029
305.7584281
308.3301487
303.0313234
314.3837529
304.7822029
290.2150254
326.0403204
333.6434271
320.7160865
330.034696
330.4642317
331.2222589
330.8055507
339.5980093
317.9384194
326.8041556
334.2922399
320.0847855
345.754219
346.7458874
330.747246
319.0197892
313.1565843
318.912553
322.5738595
322.4527135
305.9944069
296.2332661
314.1204836
326.1904203
325.7497097
296.7323945
308.5541907
304.3916065
314.2923434
328.5180517
290.7434813
286.8148991
288.0168192
302.1400665
303.5925339
299.713514
289.6136479
288.3715727
294.4359776
294.6014594
301.6209798
286.8690428
271.3557237
286.2265872
284.6137295
291.2023693
292.3224132
296.9614181
314.7738423
320.789156
314.755274
325.913421
337.2558222
313.0099933
307.2699104
313.3937809
298.8461464
294.9364701
301.963523
298.7722382
294.1867079
307.8669389
321.7366246
316.2249198
313.6724339
306.6097552
299.063616
302.6919837
309.4815592
315.043786
311.1455393
291.5428566
303.561741
303.5679948
301.0708469
307.6299399
302.7223819
290.3553431
285.1350834
295.172555
298.7470107
308.2612632
302.5102649
314.4705864
319.8039925
289.6049618
284.4824946
289.6609609
293.3556426
282.0184586
294.4009579
288.240031
297.7341059
292.4011109
287.3087411
278.092448
283.5296443
286.5530927
291.5315212
295.4078498
295.0162574
308.6258937
309.5410857
293.6029143
295.4953747
294.4668654
316.4951102
316.5746325
318.8396946
304.0363232
298.7965524
285.4465827
296.032403
295.9720047
285.0334883
276.2964371
271.0825422
285.2770813
284.2397589
287.8919109
300.4800228
302.0739273
297.8027228
320.3333335
305.3994798
307.6878279
301.7293614
291.5906461
281.833483
280.7360967
267.4943765
262.7356973
260.4907448
266.8512314
254.0893761
257.1249251
263.0236779
282.4517275
303.9692645
304.0461906
297.3151165
284.1528178
279.282187
283.6155819
284.600296
299.0827772
300.2841108
306.5727402
307.321172
314.6028946
310.2294448
291.8762626
287.9885868
303.9813381
325.4863796
319.1908026
312.2524376
293.3068598
290.8420583
286.6072884
305.1009659
298.3037448
297.3431838
271.3697871
274.0622374
291.4896943
300.4636548
303.5437549
298.8989347
297.8736515
304.936183
304.8111148
309.3276467
307.820041
303.827708
302.7265677
316.8865713
332.6490161
326.4392425
315.940275
285.6009861
293.1151335
301.0305895
286.3802526
279.2617237
276.1317491
277.6724242
280.87048
288.4979555
295.1432927
293.588506
293.8164552
301.8722642
316.2546591
305.1020373
300.3958851
302.3645063
295.9295144
290.9813409
280.1135955
306.6375929
297.9354555
278.6408998
286.6512477
287.9881292
294.7674246
293.4312538
305.2581081
318.0846431
326.9829671
320.6864467
317.6046846
297.1814168
306.8534969
298.0156297
299.8928127
291.9849993
305.6324432
306.4886329
290.6826656
297.0625482
309.4420864
315.0765523
302.5538323
300.69597
307.938722
327.4914437
331.4916654
326.2274141
322.1752085
298.4510482
300.5345586
296.5609909
298.0071164
316.9866594
309.2037999
295.787657
317.2147932
324.9480154
310.7552786
307.3686393
293.1594302
296.7806942
314.2214427
328.5924618
321.2612132
298.2645978
296.6621605
289.1769185
303.6482915
313.9518786
306.710928
301.3998765
302.1443858
298.5773495
311.3396797
310.0818754
310.2648708
317.9036265
309.8728499
281.3388216
286.4037338
301.3030909
296.4008117
290.7346834
291.4405911
301.4339207
291.5740587
299.5761742
296.4254853
301.3609617
321.1477593
307.8256278
322.5744961
304.9242269
307.98299
301.3174454
298.7451604
285.2489846
287.8143181
273.2545137
280.4344623
285.0587318
295.9735518
300.0344704
314.8201056
302.3820853
311.6209016
302.78709
287.1136668
286.867774
291.3594085
289.5636436
283.7148607
288.5448523
284.5577085
277.4802128
271.5328487
265.5685513
275.1665395
292.7178073
285.8390559
281.4208491
267.4664552
276.1630152
285.2219987
294.3047647
299.1726401
299.4441291
296.5979544
291.521747
297.9313371
299.7521907
312.6221858
318.8714078
316.1184853
312.6492431
295.3254158
299.2245325
293.0192712
299.8080794
305.4989322
306.2903836
313.2551514
305.3191249
312.6652936
324.6184178
321.1663478
321.0512338
326.482724
326.7915237
336.4606484
324.6421143
317.2939829
295.9971665
302.1833047
292.1727205
298.571495
284.1628971
302.6045052
310.7537494
302.7180636
299.5086875
288.1715666
283.6004488
305.8718987
308.9797481
304.1524923
303.0205017
299.6143249
302.264529
290.6307064
291.62064
286.1213365
283.8174398
292.0546202
285.9664291
286.179389
303.1513693
303.8822095
274.1899287
275.5706111
278.6180521
276.3397833
285.0614459
294.2103402
296.1669668
289.8823404
287.0510355
282.6439099
300.9933636
300.7274453
301.8898516
300.0970275
297.3653976
293.3244703
288.181529
292.7302903
269.6001229
262.6885906
297.1808326
290.6242878
294.3558432
291.0509536
295.7596402
309.3558449
299.7098758
293.541093
303.7446605
300.5875621
284.57802
284.0296271
294.6717676
302.6194549
276.6443842
287.2024042
293.674129
295.4816894
298.1529794
303.1275586
308.8172392
293.4213031
279.0695645
286.6996432
292.095676
301.9373005
309.8261189
302.1610831
319.5036533
307.9632335
314.571437
298.8404667
307.0966256
295.4522438
297.3686147
299.0494494
300.2273702
309.5629175
303.6823098
294.9760457
281.2814642
290.3948349
303.4054796
313.7157592
326.7248144
323.4474231
315.9319551
298.5818299
285.5792422
286.5176697
294.0716504
299.4838718
295.3450967
302.4929067
308.9758786
310.4781145
319.0892671
296.5380828
304.028172
301.3034722
290.3333291
299.2074275
294.6124576
297.6689402
309.9140152
303.7320535
308.5399148
324.1917467
339.2503056
331.7796152
327.1279897
327.508934
324.4713165
312.8379508
321.0972519
312.444512
319.3926512
318.4335009
316.6690038
311.7631808
292.6846248
310.7259472
318.0339894
312.4749928
313.0896974
298.910443
295.7809568
303.0939483
291.5758908
294.3064558
297.1084873
307.7603275
310.4499881
287.0712899
291.5403002
311.9223312
316.5359492
307.415434
293.5951797
297.3928101
322.2253867
315.4660028
326.0590577
345.00096
344.3497383
347.0974055
335.1893455
319.8269222
311.5631135
311.5098053
314.6098913
325.7470738
308.4371506
302.8219159
309.0995622
312.8392725
300.4106839
311.2515069
312.6285667
310.4370095
321.7316338
298.2683036
294.9834034
302.4306942
296.728399
298.8477879
304.181289
320.8911655
337.0217592
333.3276654
332.3286749
325.4093124
316.264749
307.1681818
292.1498281
309.582918
304.7572743
284.4381909
300.6326906
320.4345079
316.2160389
305.0704141
294.0317619
290.6563848
292.9532602
275.690262
294.9786763
307.2921828
312.1276599
312.6185091
304.1272925
302.9589941
323.3852409
322.9598429
317.0152706
335.4919842
343.476981
331.7941772
327.9118799
310.5882072
278.0559015
293.2778229
298.0019704
302.0188331
303.7726716
295.2422895
295.7882199
283.0601065
293.0914006
286.7566839
303.8096151
313.9324002
308.1062053
312.1964121
298.7337442
284.8825461
287.0154115
288.58126
303.1587181
301.0960652
313.287982
327.4582917
323.8922441
320.2131161
305.2223069
301.3911464
287.0577343
287.4386336
294.7603336
311.6959526
322.1198703
308.158069
313.9922973
310.2283297
308.9043533
298.4687838
297.3487555
304.4812849
315.5614567
316.316857
291.2974101
278.4883693
281.9296844
280.8047419
301.4960011
294.7761231
319.3358321
334.7813893
329.2895632
316.1964111
323.831779
309.8907898
299.6577333
299.1856557
289.3139449
295.9233847
306.2732563
307.1856319
289.2182925
280.6810697
267.916712
278.8419658
288.1318317
279.29924
281.1527774
282.0183642
282.9881195
287.2413644
292.2660714
301.5706185
290.3805501
291.4312762
292.9504589
313.2282015
297.8403195
299.8438771
304.6124938
291.8249959
288.0907568
279.1429445
332.0082096
317.4620361
312.7287299
321.0864201
325.980702
327.5510876
329.5383267
314.1536591
322.3384671
301.6982491
302.9005392
279.3177491
281.8958388
281.2553603
297.5599024
292.7319941
293.7223229
318.4379395
321.8195245
311.7445202
322.840391
321.3053258
316.4043006
321.9134077
308.0083659
317.0349181
310.0476163
307.2149251
303.1182619
312.5549797
314.591773
321.464202
323.3353219
330.8248326
325.2581432
331.8499389
341.6258334
320.9721081
321.8176666
325.2749431
309.0022052
295.8900491
293.8475742
298.9911557
308.6940118
305.324103
300.2889295
305.4637754
293.8240607
279.0396052
269.2672801
278.2007658
277.2354302
287.0531032
290.6342332
286.8630878
300.5339998
309.9316895
302.3440887
308.5890617
292.1029311
304.8056125
316.8493906
325.6892504
305.8948607
303.4689473
307.1047982
302.7260647
301.6304103
288.221069
282.444662
283.0432867
299.5695554
289.7422114
294.178435
288.3059511
292.1246998
287.2815835
288.9933059
295.6347972
308.3088052
295.4152004
286.3154091
284.9122345
287.2805793
284.785711
276.3979014
274.6153201
274.0835164
289.507439
288.3351085
276.6253088
274.2959909
272.5220138
287.7075927
299.3904533
304.3189465
311.9976616
321.0205687
317.7407524
292.1068162
306.1431002
313.9403494
318.412846
307.5399186
283.9083167
276.9505135
280.0228712
289.07459
291.2389654
314.7609442
315.9841698
313.6093295
301.6919586
304.0484617
298.7834012
281.3968043
276.4694771
282.1076845
290.626224
320.5689475
333.13513
313.8342022
299.140921
296.6696318
291.6144699
293.2116221
281.3174204
278.4172106
265.119569
271.6710123
280.3264721
281.7178724
288.8158363
300.4111821
297.6639908
318.0929211
309.3355689
311.7150306
303.6477978
298.8299967
293.4405128
297.5911936
299.4596857
280.9931073
292.6602644
284.3123513
283.6573488
284.3083415
282.9171316
297.4892986
291.741503
303.6736946
314.3049031
313.5905131
312.5230965
302.560088
313.159345
308.5440205
296.1264157
305.7309189
298.3226816
284.8363004
272.6647967
279.8985638
272.1488278
291.2044745
289.9558914
289.4924644
284.2786042
281.1828705
279.4480982
283.997546
303.8283371
292.8883851
294.4816274
293.5469269
298.3919374
308.4148333
304.0904733
307.8886406
312.3974406
316.325707
314.1269312
307.394504
305.1076204
295.3094007
299.7301212
298.3886508
307.3332369
315.9380691
304.8529499
311.1118617
312.1161263
310.2250229
304.2784476
300.4114495
305.6120611
317.1738054
316.9690281
281.9400639
296.8553452
298.6453775
296.8634159
292.2345379
293.9714827
300.5560215
312.8962355
307.8951254
324.4372036
321.4202043
304.1797357
298.497613
299.2821951
312.837491
322.459686
308.7459151
309.3602907
311.7978047
292.0908405
286.0169339
284.2654615
302.5880821
293.1078305
304.625933
294.7974815
289.9165894
296.5271999
299.8534108
288.1381793
277.7132635
299.6918084
309.915594
314.1057918
300.0649599
306.7027604
305.8305819
285.0315395
285.0355009
305.1964301
322.1335525
313.7937178
308.0302597
308.4880776
291.6476747
299.5159344
308.5004904
297.1388275
286.3848981
284.5839048
275.5880179
299.7287699
286.0059149
313.9377874
332.3052592
318.7755084
313.0336054
321.9354786
314.068913
310.3394966
288.755712
280.7813254
277.0875697
283.3750576
291.2927465
297.2366169
310.1922914
313.4383717
311.1953985
292.4801848
280.4412438
287.1390235
275.3807383
266.1082054
280.3884105
269.5353554
274.5638153
280.6922757
300.0617272
288.2152362
321.9358835
317.5190646
326.2348669
308.0805907
291.1288353
292.5341953
295.6664275
283.9896772
279.7259526
276.3804583
286.8048689
291.6154642
293.4123929
285.2197321
277.6373892
288.4788476
294.7054293
289.2425103
286.4036725
309.7579022
318.6829046
334.2018367
320.6745309
333.194434
336.6724154
315.3260364
301.9980485
278.8232102
284.3855743
284.1097262
275.7461194
272.2235231
280.0302049
282.2662607
294.6992679
309.7464662
304.4118546
311.7123816
291.5596854
312.2500155
294.5937929
313.0208624
316.196711
319.1793338
292.0619976
307.9706248
300.2191713
282.792556
285.7972549
292.9755668
296.7035479
305.7808898
315.4634837
304.3745467
292.4742605
290.5970816
285.3784995
283.3211965
283.867293
280.4692794
297.0544151
291.2842919
295.7101908
312.4278344
324.1051773
308.5038433
297.982188
302.3842897
330.7623052
318.5192661
320.3206395
310.1543548
305.4355588
312.4221573
317.9366643
305.2042652
296.4973321
287.4866264
278.3202679
278.8015402
302.0961278
287.2111087
287.0127961
283.1018517
294.2329388
282.5579053
283.409218
284.0323471
277.1196571
289.9239355
297.2630456
310.1820624
303.0027677
301.9364463
287.7203426
310.380137
314.5853621
323.695077
322.5373589
312.7043809
277.6947958
273.3310353
275.2785747
284.0177779
288.9651937
278.7853357
296.3994496
291.7562437
295.069837
303.2810512
301.3494946
308.2208777
316.5292668
323.2864817
331.7096315
323.7314018
310.3693968
298.1411919
275.2274125
268.5772528
272.9229638
279.2739668
285.9736357
288.4087108
288.1885463
297.8677807
320.9185688
322.7825337
318.5580712
323.6219219
327.7913128
339.4157421
326.170776
305.2894555
298.6152482
283.9211427
297.5188662
281.2061405
273.7214598
267.4541522
304.2876517
310.2402065
300.3007171
293.4171366
304.382337
301.1879671
311.0592741
296.7458061
303.9658896
299.3672119
304.340753
306.2774133
280.2236194
293.0218267
301.2032484
303.8201917
296.2971868
299.4361622
302.7309505
307.1546574
276.0839009
264.655014
264.6641809
280.8697857
286.1431781
283.8139505
293.9084337
314.0165544
306.9686066
288.9338575
308.1598019
321.2629961
320.9121713
316.5770031
307.2504419
299.9080732
300.7739878
300.347259
292.1682334
272.8425131
310.2723486
311.5566909
300.1517526
291.6344329
291.4598317
289.9025139
291.6210568
287.8107799
298.1975571
316.9479098
319.9557121
305.9216875
301.9398681
313.0809535
307.3184137
310.5901836
307.8122387
294.557726
295.0649668
320.6709228
316.8257529
333.0110024
340.6281237
332.8769293
323.3966085
312.7378768
318.6673912
321.5129581
293.3387354
291.998837
291.5785556
282.5462007
292.1141357
300.9789347
309.5896218
293.8894112
283.9056326
287.4464445
283.5148761
306.0764443
288.7153643
286.8114074
291.5487233
303.1354795
304.2889631
282.2332241
285.0890565
282.9635744
291.3656805
301.7132912
313.4414519
309.3054091
299.9632425
300.2081419
289.0962414
300.5188065
287.3823504
289.6843349
293.2119849
280.4895846
312.7818571
316.6969039
300.30816
278.2377721
283.1823545
294.5695235
294.3458366
296.6820922
305.8814163
282.1199287
279.5624498
282.096952
298.7823981
299.1236064
306.6422726
306.3701055
297.6244556
286.9011712
287.6842776
298.074224
283.1709389
282.7857291
252.5376685
260.9131486
268.409851
274.5829631
280.3100655
277.7297104
288.5861349
302.5974846
311.478983
316.568201
311.1974142
296.9216191
286.7889121
287.0183035
296.7706986
296.9270047
306.8499697
295.7420992
292.9637025
296.7533765
303.1376623
304.0663456
301.4278531
293.4865322
278.64338
271.0828113
272.4315609
274.9961999
280.5750467
279.2299559
284.8022382
291.3404064
303.771331
313.6307792
315.8081425
309.3588263
291.4775618
283.1735656
300.0354053
284.8169436
283.8170344
275.26958
279.2442988
272.7312631
293.8478604
287.0111624
284.2761775