/*--------------------------------*- C++ -*----------------------------------*\
| =========                 |                                                 |
| \\      /  F ield         | OpenFOAM: The Open Source CFD Toolbox           |
|  \\    /   O peration     | Version:  2.4.0-MNF                             |
|   \\  /    A nd           | Web:      www.OpenFOAM.org                      |
|    \\/     M anipulation  |                                                 |
\*---------------------------------------------------------------------------*/
FoamFile
{
    version     2.0;
    format      ascii;
    class       volScalarField;
    location    "0.0008";
    object      rotationalT_O2;
}
// * * * * * * * * * * * * * * * * * * * * * * * * * * * * * * * * * * * * * //

dimensions      [0 0 0 1 0 0 0];

internalField   nonuniform List<scalar> 
5120
(
330.0629024
305.8049642
291.8988607
286.8995797
348.6969904
345.4829081
356.0104378
338.2007081
324.2540801
306.4894263
335.6408247
315.4823979
311.8230321
289.4207556
295.0321329
251.1510368
256.7682518
282.8510533
295.8187362
315.5557434
323.3240031
319.2903734
305.3209786
308.2311739
313.4494868
328.4895692
328.6514685
337.3786658
317.6906466
295.3700966
306.9590995
302.4871533
310.3005018
335.2182461
318.7470335
335.5227749
339.2982118
353.0672869
368.776675
324.1388035
304.453496
286.4694997
311.0292924
307.918609
335.6641045
322.3165021
303.2602359
305.5417453
304.2211974
311.1654363
327.7540301
348.99369
347.2651815
321.3180007
280.7438541
280.0396118
287.9527839
317.5428542
313.5789258
326.4425424
312.8537374
325.9665423
332.6488916
309.8941409
294.9916149
253.6861244
268.3599878
295.1290804
303.8134663
334.4949818
331.5295426
337.4022867
359.9890264
344.8923777
328.1288297
303.449043
292.7911117
287.5104619
272.9101576
283.3828488
302.4780868
250.5325006
261.7846138
285.8904743
309.0100926
291.5828232
303.2422137
297.7973202
285.3187681
313.9847309
316.0144687
295.4751135
271.2942004
287.2032667
303.9375595
307.5020602
296.8470364
317.2652095
330.863485
302.896419
287.753744
270.6432192
282.5460386
288.9691651
320.3911592
339.3000065
340.3609629
325.9583232
331.5068315
328.247552
301.5288585
308.4931886
295.1459699
287.6631515
297.3485728
270.7142224
258.3586282
239.2684925
241.1018332
267.6584939
319.5916169
324.1926527
312.2974963
331.8841429
291.7754362
290.6618445
304.6298113
324.7993727
308.4615752
296.9029645
295.8107642
324.0350265
309.1029595
298.732672
318.1173069
307.6026855
299.736342
311.117705
294.1339591
313.7428317
285.1929029
286.2434124
279.068318
283.5212582
311.0954612
276.19662
268.5360732
277.2551366
298.1574916
277.2848258
318.2373332
294.9419216
292.7741911
329.1629589
331.3331258
338.4881992
321.3148225
307.8034925
288.21433
298.2927457
320.4038527
320.9732784
344.0430102
341.1002119
292.8928083
265.1390289
273.3537935
263.2594168
265.5161404
266.350172
281.1973688
271.8768669
279.0194616
303.0676937
301.7688093
301.469979
304.0142171
319.5029806
298.5272647
338.7247385
320.9143176
317.7743198
314.2437262
308.1557063
306.176212
309.0621107
314.0558918
307.4499812
305.132633
318.3393343
331.775967
306.10635
324.9888042
325.6497588
297.7640747
296.1869153
289.9402116
269.6556386
305.435552
319.2827756
285.0521107
275.0151165
294.5884692
313.0514691
307.2423887
292.140049
339.31763
334.0527332
342.3392801
349.120653
341.0002156
343.3816291
313.9340569
307.2256962
291.4482597
300.0610448
304.0887339
332.558309
302.910876
259.9558239
276.8272709
304.5675721
319.4631436
275.3688633
292.9801549
301.5658811
325.4393232
332.6415698
341.2919276
317.5087713
308.7819696
303.140312
308.1028867
305.8991806
287.5829991
282.7129043
291.9317145
284.9695605
272.0013
269.4033951
322.2627727
330.603211
310.7265998
316.3532012
287.3613326
279.540023
307.0428627
292.9393472
286.2971585
289.0522844
331.9619963
315.1394724
328.2312611
322.3702134
308.8796955
344.7882723
319.7761513
316.6233774
342.2092727
323.3489699
311.6625321
314.7088867
320.7582971
330.606982
315.1581554
334.1533505
307.0702489
325.865586
326.0294733
289.0451906
273.6415478
279.4441822
281.3769698
294.6915837
300.5256481
322.3745367
289.6036912
294.6340198
281.9722833
290.0624472
244.9388427
246.9789036
227.5330829
249.6204584
271.6654569
291.0902736
313.7569628
302.9300892
302.5390763
286.2496779
284.6449893
302.4555475
311.2665031
302.0982565
275.9660822
250.8795409
282.777658
273.5646415
280.8749598
255.7918028
269.008834
271.9546342
273.0492115
266.8649517
255.8538221
262.2933882
254.1925328
273.1725344
287.0807281
289.4216714
307.317143
283.8978388
290.4090715
256.0834705
244.5114179
266.4434556
269.4572808
278.3352662
264.4676817
278.0001887
334.8545971
345.0511744
358.6588497
346.0019451
307.126828
305.5778345
297.9403945
313.2648636
328.6226044
329.4103597
286.6648366
298.0606618
299.1859161
323.3722512
332.4817038
336.9511926
319.8752361
295.3397585
312.4904924
314.9781704
331.4822042
341.4516549
348.8997765
337.0103475
345.2721053
334.9383229
321.4969698
331.0528847
348.1561348
312.702304
316.3456189
334.1609146
346.129601
321.2803434
333.8727265
320.2808359
310.0512242
303.5478413
314.6248737
325.2985897
307.9993586
305.3774043
297.4953497
320.9593948
294.5568075
270.4766692
274.2909013
294.5909899
312.5574528
320.0459691
304.124094
320.0655737
300.2663639
286.6685319
302.310735
321.6625971
306.2003065
320.3263587
327.5059094
290.2063718
269.9049512
284.625945
271.8414753
299.3421038
296.235432
300.9366779
315.7278231
302.2943223
330.8656606
311.2591339
310.7395254
288.3984049
293.3548114
314.59497
321.7662549
340.4209768
338.5828026
361.1078224
332.9281698
295.3905764
278.4007507
285.1818946
283.7743584
302.4552793
290.1940739
311.7504361
285.8306761
303.5847593
299.8801354
269.0412368
275.7454938
286.2372545
295.8816306
274.8138481
275.2613561
276.9609913
311.4435008
292.3248455
287.2447488
282.6906777
328.5106869
319.1138032
331.3580835
315.1682741
331.1424682
328.090075
323.6944513
332.3966666
307.6119668
296.8732222
296.6370454
304.3663611
295.6006535
278.6441412
255.8945401
258.5831363
257.2504955
289.6551723
293.9840108
291.5961688
308.4401524
293.2236013
295.5923326
299.2073308
284.417165
284.6382662
268.8384038
282.2097098
298.2902722
307.4269641
310.1469987
314.8101711
322.164102
343.6582243
317.786057
295.8471438
325.825731
291.9802991
288.5544843
302.8061224
321.3511543
354.6698945
343.6041024
369.2888466
339.8401823
313.9374541
321.198119
314.9700697
319.5696577
313.4351023
287.7849952
316.2160484
314.3928628
282.5364665
285.763471
348.4159019
348.6465757
364.0054912
391.4685681
345.6016645
339.918907
317.246141
265.9003347
267.3490408
294.2237786
337.1298099
364.8281771
354.4627592
340.0779688
354.2942793
350.4694604
356.0588475
373.332929
348.8870987
342.009844
307.2213901
328.9206824
330.1454759
312.0501807
312.6121017
359.8520823
348.5517806
365.814864
363.9453515
411.1936229
406.7036631
369.2258671
367.9015264
306.7119908
276.810376
289.9308459
304.0357844
296.5413096
287.5639253
309.9631228
294.5490586
278.1133974
319.2542433
338.0613811
346.5684164
364.6065296
371.4895256
398.0224851
374.7975118
376.7345668
391.9285495
336.774354
339.161435
362.1356866
340.6656387
328.8973871
325.4743687
327.4410784
362.8768033
338.6667632
352.8666401
311.0635696
316.5047661
349.0286922
355.1403297
311.0970034
325.0222532
297.8672147
327.4937169
343.8561597
354.8209635
343.0371448
317.5850003
313.5347724
303.3600097
316.5321763
298.7586408
305.9581982
292.5226258
305.7768674
322.6699943
336.6393867
291.5575256
307.1613912
309.5880185
305.3581514
307.4334513
302.4163628
295.4471868
315.1967399
309.7146613
314.4545488
308.2611218
294.974654
308.6131662
297.712136
340.9515392
344.8494239
340.1673773
346.8904983
322.0515004
309.048463
339.8985247
316.4318965
335.7381001
294.958757
301.4707662
318.9951711
331.9856036
300.2106881
287.1368277
280.1432155
278.4528635
272.223364
297.8079902
306.2868021
290.6289217
290.3453915
288.9611516
314.7065725
277.6390809
284.7737083
275.5126965
282.9484288
286.8531262
231.6997645
228.6123096
252.4819614
254.8578456
268.6001139
300.9287742
277.3487703
296.119914
308.0432308
293.5602983
287.7525923
294.0136051
280.7073969
270.2640479
242.9503503
294.9519908
302.7028369
302.203625
278.4087501
237.6972044
285.7699439
278.3204884
311.5180848
308.5699119
327.0789817
320.0449423
293.0604682
283.535356
273.4586604
301.2361905
312.7835252
313.1776402
306.3085593
326.7876479
305.6868968
300.3289771
284.3591961
319.7625705
319.8605422
300.6915173
380.3117852
380.9109032
383.1660215
357.9512013
345.5802352
345.7665616
299.6649537
330.9984701
330.0654187
299.7532538
326.8582727
303.1720189
309.0844692
311.875649
338.5265271
374.9068132
375.9944698
402.0220727
383.3366698
375.5454733
323.5730077
319.9363791
291.2011036
297.5233073
272.1387934
281.2772791
321.3771175
315.4852644
322.2225389
350.1961515
331.0557496
316.8277942
320.3454613
336.3741898
320.9197502
306.8583056
315.6302486
322.0447888
314.739624
312.7539309
300.8753744
293.5848003
287.4349872
298.3581751
315.8655255
311.9359932
314.2083852
305.8373325
333.192936
310.0037642
312.6251324
349.3065936
343.7619813
350.8856057
331.3220497
301.5469778
295.8915338
283.7538561
303.40761
330.0751314
293.8525561
312.462217
324.5393509
333.6575183
311.3725455
316.128709
312.9829042
306.4907904
274.5628241
296.2209891
331.1081988
308.5026865
291.4222527
302.5091015
346.6103798
322.3786529
351.5206867
323.2992529
303.0272409
305.8959242
348.2660903
299.3229301
298.2156059
305.3644072
306.5369669
293.3073362
282.0979582
251.3958036
267.3670686
293.1168396
310.8881932
350.2060305
336.6697281
313.5686653
278.9630787
280.512246
260.0158991
278.9760549
300.4498735
325.2876611
292.979991
313.3639945
331.6933489
375.0422838
340.3250317
359.1947274
352.0341419
371.4717368
303.1134197
292.9607894
264.3607246
278.0421418
292.4188958
316.5738367
311.8110443
330.4506733
322.5970441
294.8820915
290.1252501
297.3427673
326.3959413
313.2119395
281.0362408
271.9527617
317.355418
348.0673177
346.7380338
301.7445603
322.4042485
348.2384496
364.6988089
367.8886505
348.6070546
320.8835988
314.9193382
324.6003441
299.0162646
297.2002429
289.8326961
334.2575925
312.1119333
324.7571484
320.2516869
349.4160204
322.6928959
319.4453256
336.4098479
350.0013237
357.7803598
339.9416614
344.6587819
305.1448247
278.7135532
296.3993546
334.7909095
330.9957745
331.1288866
323.800218
326.1214044
336.9760914
331.3532186
315.9224685
299.8713407
292.0193824
271.7281001
270.7770409
242.5331521
262.3253376
283.2336136
271.3912472
294.900075
303.480447
313.844195
333.3283475
337.9330725
325.4170447
356.5786125
332.3475822
335.6346213
324.0767928
275.8794524
271.4874559
290.4240782
301.856428
298.1005141
291.7321196
307.8178311
298.8109471
321.0989982
344.8976558
341.4860812
317.8202026
321.5548392
287.6719472
298.602823
301.3919712
308.019969
295.1179955
268.4679491
304.2388584
306.1989701
312.1996407
298.3351244
312.2299713
316.3816409
316.8203581
323.3357084
332.9042094
311.9225954
310.6815961
286.7017919
289.888188
261.1492469
256.6955531
274.4503144
309.5455512
289.1286454
328.1079297
328.2208293
306.3646926
321.0290251
330.8923819
315.6099062
328.1377808
323.0228749
326.7793217
313.1055427
294.1807992
317.9167046
308.7196163
298.2197769
299.3051524
276.1346236
313.8418168
296.0527841
292.5886028
296.6618561
324.2920668
352.5809393
354.4016048
337.6729221
324.2873612
347.2766942
333.2641133
326.9210651
302.8601333
348.1681958
348.8673036
363.1766902
346.8463954
344.3643471
304.7885998
313.9573029
309.5825215
307.0674389
319.1927847
320.8439143
307.5924083
307.9527796
315.8292694
296.2574058
301.2536252
296.2849158
304.8551568
298.6314493
295.8873713
276.8776701
274.8710304
279.5807434
290.624084
291.5234495
284.4865205
277.9835027
284.4778471
276.9108192
268.6780395
289.0796696
273.2325622
272.7158754
298.0137483
300.9706098
270.4855974
261.8905963
267.6785901
265.7683198
258.6352381
233.8078555
285.1212618
270.5778262
252.5026596
251.3249944
240.0969427
267.431972
274.890465
287.6577948
309.5397679
263.0645063
262.6284281
265.6100689
287.7611457
333.2818941
315.613574
316.7907081
290.0705986
277.6515858
309.605324
329.3633247
310.7303396
311.1350728
311.4140226
308.7623953
307.374713
319.1816553
308.4728742
319.8698967
298.2582553
311.9092711
270.3384109
292.3331706
309.3636493
354.2556153
363.3647902
377.3613041
352.9049564
355.6920749
334.8736803
350.1248291
355.4375279
359.4609511
389.6158287
386.8048854
412.3785982
388.72233
385.8232029
371.3545012
383.120085
362.5937669
337.6190294
304.2884347
366.2491297
351.7600334
332.2575634
318.7303955
340.0988477
325.1686596
304.7446244
293.7134731
321.8409143
304.5026056
306.6863615
321.8563196
302.1912918
288.7035313
310.649653
306.2002198
318.6794261
338.9072579
329.2379871
348.1195908
359.1384257
267.9542221
289.2977622
273.7930668
274.6229571
286.7162086
276.3935414
295.5125733
317.649415
316.1831903
346.061491
309.3693567
341.5957901
320.1090374
290.0553912
305.8434091
316.7163586
335.1924343
318.8523983
288.4800451
264.9203318
309.2064554
292.0616874
288.9431207
288.8476137
287.0729352
301.6949645
323.9015777
301.7891248
263.2317811
265.5192252
262.1411639
246.2295417
282.438974
314.2134592
299.9472298
317.4391325
329.4021364
313.6950877
294.8299639
311.8285956
290.2451397
283.6471578
288.8450525
270.1999287
264.4498691
262.4419623
263.340488
286.56514
297.7037041
307.1155055
290.459834
301.2889828
302.9856482
307.8276548
289.1935633
298.4710251
294.3698019
313.5336909
299.7519591
293.1100523
314.3447461
316.758214
327.0401639
340.0012362
348.0598729
310.5007502
290.0734132
256.7603449
294.7278867
286.4485403
282.7435463
280.662532
297.7877873
295.7902817
285.7754001
285.4267831
304.4698085
300.2995684
290.5183021
311.4046142
305.8440746
300.4505156
335.3375158
328.9470657
344.1424068
334.6520873
314.6270256
347.1920797
342.8887982
333.9104001
302.8619008
267.1177418
290.5809616
308.8099167
292.4311341
300.6572333
334.5095903
341.7364447
330.773523
324.5187133
359.730808
316.7971204
294.1832184
281.5753704
281.6674134
279.174327
286.9576656
281.6663962
276.9670999
288.9171694
302.86572
317.786381
356.1297218
352.1794915
314.1654333
316.3413017
297.9204631
366.8612011
355.3304277
352.9899586
351.81358
349.6849772
342.0669412
358.915252
311.0062
321.5448272
296.5595651
305.8896805
271.2813147
282.5502395
276.5715796
319.7626638
320.2103163
338.1401503
337.6970301
344.1750654
336.9651006
334.4775792
368.8020607
385.3829769
281.8111529
287.5160788
282.793988
301.7933489
324.306602
333.56244
336.7897055
321.1529823
304.9550743
309.4733453
324.604442
353.1941188
358.6743989
361.7853912
338.9261329
322.7629699
341.8504654
325.8540543
317.3336051
267.8204159
315.2659809
323.2930855
324.7177487
317.0802047
291.5987595
292.7072686
325.3021939
324.2468444
328.0157514
348.558134
330.2389497
310.3249256
303.1938752
289.1922732
287.123227
264.292201
275.433866
252.1973605
256.7213387
282.5850083
312.1311299
311.886101
315.3063601
328.8505925
331.4587721
324.0044005
286.7002464
324.6786428
301.5129909
307.7197357
306.891677
331.7467012
349.9902523
331.6997269
348.8822962
335.2009145
357.0529462
337.7833577
336.4361103
311.6289408
329.8685959
325.0859342
341.407252
339.7734323
331.0136771
332.2605174
335.6502519
355.3481999
369.4506385
355.0943376
313.0648084
308.8322067
332.0400339
306.5158948
299.2694278
309.3749925
311.9666979
311.3511359
325.7511045
316.575667
299.9198428
291.3974211
281.5253196
295.2328198
311.1328997
323.0258643
296.253122
306.2264028
285.4817915
299.5064673
330.902224
347.2954476
312.1725203
279.6573776
255.2814773
244.5999127
266.1582973
266.1272949
277.9479704
291.6050556
255.190404
257.4789157
291.8839438
290.2167881
297.074029
309.281455
279.6119997
282.8799737
280.1343311
313.8251394
333.8946776
319.853701
302.4849472
308.1164595
264.231371
264.8332435
275.2210788
293.2267733
299.669814
284.6376899
320.1466553
300.1029444
300.9165391
307.8404559
330.5067723
321.9280011
311.800577
341.4924564
309.925411
288.1979264
295.6379627
289.6786408
278.0386649
295.20119
321.3377212
311.8869219
313.6867137
343.8813548
327.7302109
301.4671525
342.8998498
317.9129744
355.2685966
335.6239974
331.9188658
348.6212223
350.4755253
313.7352376
294.5388306
302.389325
263.9327845
280.854171
264.7138826
283.3929965
305.0905452
290.6263922
334.9351921
361.0220807
348.2735817
331.8408054
303.2506747
345.1124403
336.6254594
320.5490222
309.5353699
308.3738286
308.890891
322.9001283
337.378831
335.4093377
314.1564655
306.4277855
318.7636118
295.8935897
314.5972926
318.6740407
324.8735623
299.2286185
289.3500864
302.1897704
331.1036605
307.1470476
317.4718149
341.3173066
325.3456901
335.1834388
304.1421828
316.1534065
303.3892788
321.6144404
327.8722626
316.8131471
322.3686228
315.6879175
302.075657
299.2243253
282.1245794
286.549005
307.7204991
329.6134147
263.6770288
285.0722832
284.921649
300.1502185
287.0596953
295.20042
303.2589597
295.4990295
300.0889232
316.5085838
314.2612748
298.5645832
320.4935863
307.8246332
323.1637079
326.2978469
316.6744329
313.3869879
288.344684
281.9836539
303.9723374
297.6887661
317.2142439
311.3706898
309.5681023
309.5408799
312.0782881
308.2018919
299.4729069
313.8459326
362.5726944
363.8545356
344.2203999
343.6347273
363.0200151
312.0161357
291.9103246
299.4008346
289.3556141
286.9450881
292.529717
301.1073576
309.70504
316.4724574
338.6382002
325.0719609
297.3731358
328.3191939
347.9456456
301.249103
310.2036688
325.9593399
304.107128
324.1595569
310.6779355
296.5309986
311.9600434
305.1270517
330.047683
296.7577936
277.1370235
280.7117832
293.9858067
314.8741642
326.8392153
349.7597252
361.9915828
346.4208194
338.762745
346.4030797
336.4073276
347.5449054
380.4687658
305.6793009
265.6483607
289.3687112
283.6993472
273.7703925
270.6002368
261.4913465
305.9484934
341.6650775
352.7448088
350.9717775
330.8578975
321.8608874
293.9229348
260.9083977
265.8222958
294.0450767
296.0499859
300.3333151
307.2284575
307.4138939
300.0769836
298.7677016
301.4726783
297.7343994
294.3322204
300.6105858
301.1517479
300.7587688
274.2483739
295.989511
325.7594973
304.1088761
319.6433119
325.8501386
341.245134
337.6429586
326.0990386
299.6803609
296.7973594
303.2059961
306.7515427
286.6604587
297.7281613
279.6335838
296.309265
299.494587
322.3563259
330.0317003
313.3318159
318.4125659
291.1527105
319.7252533
323.9948926
321.3554497
289.7364078
289.553108
258.4029109
255.7975567
262.4991038
284.160653
303.856465
321.5336045
301.718091
316.0297555
322.731589
335.8569585
288.8791596
291.3494966
263.1357105
254.5223283
237.2266442
237.690807
248.127362
259.1473907
256.5726936
250.0580143
262.2113443
252.6961087
254.0417307
275.4652301
285.4984533
299.7460418
287.803932
255.6602049
251.0698249
263.3927711
320.9261507
331.9483188
320.0602395
299.6902484
289.1849104
278.5556576
273.885897
274.4189944
273.0733767
278.6082037
284.5026046
314.1179327
302.9081194
302.1210633
291.6951962
297.4704865
299.360934
297.8398396
288.0135079
290.5076179
264.8240752
264.3117198
278.2538099
274.4592704
303.9356836
300.1911924
310.8964573
294.0899794
279.6798775
263.8225926
270.3920309
280.9768184
308.6362357
302.4935039
351.9685926
336.4338552
328.5035748
297.2175614
294.7404194
283.1654978
293.944541
304.8137627
291.2926639
295.8315847
283.0095588
273.1477211
276.9761959
281.3964543
253.8425251
278.9311245
295.5024858
280.1345245
282.5999985
283.953065
284.398444
275.449128
262.3671669
286.3881755
315.3845284
292.838607
321.9591101
302.1838522
294.0550649
281.4884231
314.5134447
328.8825358
365.5105755
371.9181328
383.8890818
352.0731936
303.8584216
277.2914972
276.2129982
301.1540331
316.0048064
322.3576771
333.1272704
323.7968758
287.3286041
318.7077111
338.9522428
328.3677757
346.4812624
342.5871777
313.564194
308.2028023
337.7379488
323.028195
305.0947389
301.388604
296.2820075
285.7163247
290.6814315
302.9613675
274.8755273
293.5540543
311.2758219
301.373889
324.1217847
338.005859
265.8204075
250.1646557
271.6559299
284.1136049
275.833297
253.1017272
268.3798133
269.8624932
275.9460759
261.6863125
299.4507758
301.3160378
300.0476357
264.9595301
265.6857985
288.4389833
275.025149
310.3070101
307.0812817
297.1832858
301.7475543
305.6040655
319.6513704
322.9616902
340.448136
372.6084897
364.1915986
330.18191
321.1077224
308.7538816
290.56403
313.2395796
326.6495779
352.5562552
334.4618043
353.5396069
326.4880263
353.6816856
352.1021315
324.8957404
359.4481754
375.2929322
369.6286781
362.1687025
334.478474
330.187239
312.5520823
291.4508422
304.8616111
316.2350219
327.5186724
324.614966
298.2099361
301.137457
279.0589777
255.3776373
250.3712847
246.2142327
295.7510061
322.2911051
288.6344827
297.4226353
284.7596614
323.8096607
289.3730189
311.3408645
322.2068887
329.3395194
342.2510324
315.434464
279.5415263
259.0972819
272.6821335
268.9003167
271.1309423
294.0384186
299.5088176
307.5322975
288.8154344
290.3634533
372.1021088
364.2269038
334.7233537
297.2850266
308.4687594
300.6141357
293.5054808
271.3296155
279.6665239
282.3995068
288.0379578
284.1578261
302.2038535
270.284264
266.740573
283.6702546
283.4692026
295.7163735
297.2111169
323.729365
326.9394297
313.6313771
314.940287
317.0764022
310.6660153
307.2145475
304.3871359
275.8452887
275.0131463
269.0007877
257.2679188
274.0623654
279.5283029
297.359872
340.9332542
350.8427279
344.038758
323.5265162
321.3012085
334.3699546
255.4134704
264.0681191
281.3952775
296.3914542
277.8290274
291.2232763
304.5632
330.0126575
313.4297167
288.8991408
272.8776999
279.1810875
270.8995076
301.1393384
303.7194649
298.6893789
290.9808306
278.6521087
230.4095987
234.0692724
323.8006937
365.7463979
336.1372707
305.0077674
312.9489283
322.3280992
331.3709078
345.5791923
336.3030136
324.4285155
322.7354248
278.9499248
268.563695
255.4756432
284.713321
286.7044909
313.8697413
318.314188
309.0220213
316.9461983
305.2441281
293.0407381
307.8550327
307.3061181
302.3857281
309.2641886
318.8665146
324.6332967
324.6457313
302.9504381
297.6671208
309.0992013
305.3824008
314.9306244
337.6357459
342.005016
344.7727963
338.9780716
351.3954774
303.2795612
262.9944279
272.0649781
284.5657646
303.7952251
295.5159075
276.4879169
289.4356392
286.0415229
301.9981058
318.7754154
306.0726061
251.5831684
231.5950122
233.0349469
219.5736688
237.8956777
234.009775
239.9984664
270.5807588
290.6685569
271.5646574
268.5353809
274.9651214
288.4393762
277.9651214
275.8120982
261.4113559
259.9173358
280.2444643
297.1526396
279.1797668
318.1206868
338.7449224
298.9588975
280.5089415
279.5729573
251.7360821
269.2203956
261.590602
261.4727021
289.0839505
282.0470638
263.9215218
246.1023323
278.60934
315.3626211
316.3637168
308.9601019
316.4246528
288.0353122
285.865555
282.5388066
305.8396486
321.0746075
329.7005555
331.4235109
323.0477754
308.112182
328.2790977
317.4493115
305.9380189
277.6293484
278.543792
282.9205837
298.8374204
292.8183967
278.2237612
289.0285813
284.5118249
319.4552887
324.3674615
331.0463677
318.9608033
296.8128794
300.0095295
303.3178508
314.5887634
331.5557115
323.8841414
304.0226101
303.9884672
316.273937
313.7274421
322.1366151
318.7332934
290.615497
265.6140036
262.7156647
284.1804149
252.203481
256.0238335
272.3644719
282.1781899
290.0171489
274.0990733
268.4240231
263.6190501
307.4624965
294.6443868
307.7681941
369.3539768
374.87868
392.5697036
375.8771648
381.4537252
356.0662627
323.7580149
332.5900029
316.749721
326.3012883
321.4071981
341.2286963
355.8838912
360.4483688
363.0867769
347.4632073
332.4478534
320.9175488
307.3131046
334.9079671
301.2767864
271.9465185
283.384634
289.3115151
303.7041104
293.8485897
296.6279323
312.2546171
288.8021352
302.8947881
284.2674679
270.5495304
280.5035613
286.8897908
291.3030026
255.1714304
266.4602435
282.0709532
291.9651884
294.051855
274.6846104
287.1287259
296.6090784
285.30348
327.2726978
335.808458
322.8833499
339.4708045
331.2819632
305.7548325
274.2767782
255.763379
260.619119
301.9243097
324.1266061
362.4661774
385.9076564
351.5740486
333.808345
312.060906
350.7822955
353.9280559
319.1354549
320.8469034
327.2031866
303.6503777
301.4976345
300.9749665
319.7272441
340.7195765
333.1051482
348.6296422
315.9849548
301.5829499
339.8087945
337.0769771
338.7941906
315.4145746
328.9682272
345.5585052
292.9130871
272.5261263
277.2442318
272.4979529
261.0255798
284.4901372
310.3827898
305.1851065
290.2735695
276.2226965
266.8098731
281.4895549
304.2014576
295.079384
314.59368
352.4961359
329.4516516
310.247756
312.7289112
293.268422
308.7988967
300.0892849
280.3422589
284.6203412
310.76944
329.5746748
318.4540075
284.9317109
247.8134333
243.4690478
235.8789906
258.2570696
245.3192987
271.699832
280.2725643
273.1551255
291.2499413
302.6777587
310.1495944
319.7071303
280.20771
299.6507315
279.7863383
298.2000924
287.8091116
267.1078819
267.131244
255.3219872
275.7585434
271.6259084
274.8970176
272.4217665
276.2729478
284.6122472
283.8790357
310.740367
306.5900414
291.3912995
289.873779
277.4711288
278.1094537
272.6201411
291.5960579
286.3216323
296.0177773
305.0611781
319.4735907
300.3448813
291.8027473
282.76138
274.7571233
263.6267847
286.4022976
281.4952957
295.0453999
293.9149119
300.2079232
290.5101649
296.2725014
312.065452
270.232189
265.9523806
263.6454436
263.0441335
283.8197616
289.1016088
286.9252395
286.8214
297.4521385
281.7684172
298.9518838
304.4355379
308.7897465
287.6961101
307.9672853
276.9774941
295.1503078
322.3283954
354.1454345
308.4469665
327.4460859
310.667774
296.6112784
279.0934705
259.00394
275.0568358
279.4378197
264.2744389
253.4486785
266.4869041
252.8427908
254.3504936
275.622673
330.9975306
338.3253185
343.5860242
299.366754
307.7922944
299.9083929
324.8453971
287.4662187
263.9199325
281.830029
294.699738
305.3026001
307.65648
307.336745
284.3559299
277.3691723
279.0250832
275.4203113
282.3929963
289.259017
269.3576444
269.156297
287.1679761
289.8187754
278.5738113
273.5268345
289.4365439
298.3861555
301.8288333
295.5663571
281.8930261
286.3195099
286.906289
282.1366539
302.5608979
304.6820065
294.1091332
286.0596685
287.2506192
293.0446733
297.114988
306.5827117
300.6333356
317.3490806
277.8794462
296.6317397
274.1103816
300.8751427
305.2885946
334.354356
320.178115
315.3457831
319.4753316
310.9297188
305.5563351
297.0002215
306.988253
307.2542161
306.4265129
306.1126769
352.1882059
364.1650275
353.6180059
305.4480162
307.7790907
306.349344
295.0202933
307.7938727
290.9491192
292.7637517
310.6070176
286.962491
278.8549994
291.2340534
293.8536106
328.4313132
331.6008203
374.0346887
336.3428333
307.9924941
294.6718443
279.9674275
285.911337
271.4824555
283.3009451
298.0561363
299.2747068
276.1596786
294.3847543
309.186302
315.0855892
302.4547097
310.4690355
291.5171207
284.9733523
275.763816
286.1929527
263.7881387
253.9160201
255.4683031
249.9071499
279.0848273
275.0600074
284.0925741
269.8491938
261.6126572
282.2071204
280.8783817
268.1272385
280.0638572
255.8035712
282.446442
293.1370443
298.8912465
297.4476066
258.8706057
243.9575497
255.6893592
260.5154483
239.5128462
224.3516884
245.6105412
253.334936
275.8469856
276.9030479
279.2443751
273.9045585
317.4572686
335.217263
333.6992623
324.6532382
301.0748781
297.2591301
320.9087017
323.1872391
304.4714527
308.2895236
338.8019036
329.0056364
347.6090667
375.7187945
372.3838643
360.8085753
336.0957449
336.0471717
315.4950384
302.8441637
321.7750048
349.3163963
322.3649269
324.9964708
313.2857469
313.8347786
312.9875072
313.0618022
296.2818005
314.6702817
311.0620016
332.4299382
322.9098336
303.6350291
290.5719649
283.3356691
302.1397
323.9401663
320.7811917
330.3181872
334.5527885
309.498623
292.8505851
326.9435291
335.8156758
305.5331579
291.5215644
309.632758
322.5039524
317.4928664
328.3214852
348.2757068
335.6691468
328.1980469
332.835
315.8213732
314.1286851
271.9481701
284.9987449
299.7680641
235.7398143
271.8077506
308.1811768
316.1755011
273.5127731
254.6154687
273.7065105
267.6358359
266.5594949
292.605543
286.0441446
277.0176283
294.2462139
298.4734326
308.8683775
276.7800371
280.4007596
265.7745298
246.4511059
223.0103404
291.9605792
295.1527422
279.7141165
289.5082729
313.9096945
313.2897467
310.6388127
288.2687509
291.1242796
307.6941254
309.4431516
347.5170396
369.2878523
366.5276977
298.9524419
261.5314818
268.0965923
294.2515532
290.1413625
285.4197276
307.819265
329.5561071
320.2302695
304.9176991
301.0884235
276.3168615
274.3380587
290.48441
306.3877326
313.3693412
301.5690222
313.4209033
288.7710467
262.7260271
284.4101378
319.760737
337.5726424
318.8887626
298.0940982
293.5856052
312.8441287
291.7114312
305.2859201
300.3358519
259.7333214
288.9622438
297.4936953
268.4075063
276.616104
291.0763085
326.0212366
336.3726049
319.7129817
329.7574252
315.250303
287.3818763
291.691303
277.9844661
279.0360486
304.6333791
254.3351277
279.1428347
287.5085718
279.0340478
292.9155669
264.7105119
274.6198323
293.7301077
311.3517104
304.3043259
296.4618808
294.4227914
298.6301589
280.5699948
269.2940754
278.22871
289.6729416
265.3232979
253.0878078
243.5013468
291.4781687
292.4441661
268.6704903
264.7256805
261.5498237
250.9453289
275.0099462
277.2027461
285.5095697
288.424399
297.70493
301.9402562
286.7992861
260.7247421
269.1478044
284.3005913
294.451007
291.1309084
319.2709173
312.2822596
288.0058862
289.0226093
291.9163635
284.9895488
276.6174871
265.5416767
255.52857
258.0654007
291.8976527
300.6964926
323.8798789
299.5840973
303.3889844
287.1802524
276.6867817
272.587053
280.7853711
258.391489
274.7696873
268.8069405
302.4870362
285.1351957
281.9742491
255.7187777
288.6382448
296.3811426
300.7132202
315.3840712
301.6553532
299.3370641
311.1267475
303.656197
318.4564161
303.4662934
300.8115341
277.8705418
298.903838
298.1817292
283.4026719
286.9117588
276.7299719
283.7640028
283.3768605
319.6538682
332.6037181
307.145317
287.6048266
269.3881522
284.1325959
297.5110662
303.1403628
294.0597562
264.644621
297.8036229
312.1483813
307.605514
288.4868427
302.1389898
307.6430918
274.8766169
310.4371354
316.7578916
344.6399757
314.0326787
296.7053756
295.7731285
290.4485543
308.2791052
313.7505684
311.9433433
299.4832781
309.8110979
310.9347382