/*--------------------------------*- C++ -*----------------------------------*\
| =========                 |                                                 |
| \\      /  F ield         | OpenFOAM: The Open Source CFD Toolbox           |
|  \\    /   O peration     | Version:  2.4.0-MNF                             |
|   \\  /    A nd           | Web:      www.OpenFOAM.org                      |
|    \\/     M anipulation  |                                                 |
\*---------------------------------------------------------------------------*/
FoamFile
{
    version     2.0;
    format      ascii;
    class       volScalarField;
    location    "0.0008";
    object      rotationalT_mixture;
}
// * * * * * * * * * * * * * * * * * * * * * * * * * * * * * * * * * * * * * //

dimensions      [0 0 0 1 0 0 0];

internalField   nonuniform List<scalar> 
5120
(
303.2570163
305.4566727
312.0620731
298.8603326
311.9402401
308.1000031
304.0639197
304.648026
315.4598222
302.7183946
308.6638216
306.7443697
310.3029896
294.2004588
279.7168653
275.6249372
275.6072844
279.7279205
286.8564059
288.9313319
305.0332584
309.3840385
294.0817102
298.6193687
301.1453625
310.3918392
320.6925632
331.1188366
325.3516126
326.2505589
317.3670205
308.2552277
310.926469
317.1323604
312.6068206
313.2448371
300.0261676
299.7637678
305.9483625
298.947089
299.8527152
286.5227927
290.6557493
298.7760397
311.9817081
314.9286768
321.0555149
302.9733994
307.5571884
297.8070395
304.8965514
303.2762339
302.3394623
290.197369
291.7442283
293.4843661
301.6841319
297.9592721
297.9605103
305.0606133
326.8656293
328.9246823
323.4997766
314.1935319
295.9844044
290.4591122
291.5788852
301.5857447
304.0581165
331.5374011
316.733474
318.5682427
312.4087435
301.6181584
307.5268374
297.518419
298.6949537
304.6968587
308.8885139
317.6950833
313.1812671
293.4191674
293.7068128
296.8515157
298.1070735
292.1397143
303.4127023
310.2306756
293.7666505
273.9372179
268.9694175
275.8702992
288.8579653
308.2548496
324.9646463
320.967077
332.1280255
323.9784396
329.1185895
327.883283
286.9848248
273.6853119
289.6830769
297.7119123
312.0332379
320.4000972
316.8042135
330.283568
328.3395667
333.0995837
326.1998056
327.044132
314.5608873
311.6459908
323.0989374
324.3019983
312.1127837
317.0198507
299.3334147
293.0311737
320.799784
322.7788547
314.9056525
329.4813377
318.0751421
318.2396941
329.348961
331.7986756
318.5919933
307.9866262
298.0298602
306.3349198
317.2839337
311.7881293
313.2067916
318.1409866
323.8077496
316.0257556
314.3426855
323.5071712
287.8376328
284.2530795
284.8162289
280.1570746
285.9755164
277.3886797
267.3060777
277.5085018
274.7409934
275.1313979
291.6457058
285.5588353
276.1747117
281.7993707
286.8841252
291.0843893
289.8295771
289.2471704
291.8442911
286.0812837
294.9546507
301.4767455
304.1987572
303.6640672
300.671375
285.0538216
287.0838776
287.5282441
285.7964558
273.5936984
280.553701
277.9035172
284.9622503
294.2993362
291.0600062
275.8172526
277.0494895
286.5551641
281.6047576
299.6277661
288.0805502
286.1988576
295.5668061
285.6778212
287.2139445
300.831885
305.8164836
295.1014314
296.6603846
296.9975177
306.7503177
308.1275581
324.3176833
314.7492651
305.0737635
301.3209652
293.5202566
288.6060446
290.696696
283.3588483
313.1971679
303.1094427
315.4958564
323.0107595
324.4385736
308.4419932
318.9342283
318.4521943
318.5409223
304.4668302
304.2521051
305.4040478
283.2190419
282.6028793
297.5388809
308.0478324
312.0145485
314.7140048
312.3407092
300.3898022
300.3735103
300.3208295
296.5961995
286.8269154
291.719259
293.8016614
298.0536748
286.6989645
293.2461936
297.3259844
296.9721274
302.077029
314.6531254
320.836128
320.8521839
311.1942493
300.4727921
291.454154
292.8059925
298.9169336
308.3364428
310.0208721
308.4616362
311.9331993
297.3712895
297.6979559
308.8057289
300.868834
301.4857648
280.0485257
292.93024
295.858284
302.9965993
306.0135866
297.1609367
312.187717
306.4679463
311.7779117
325.6345869
318.6893169
306.4261197
318.0613537
314.650712
311.0134928
309.7950329
320.9281899
315.4792302
308.4235873
313.8346493
294.5337872
294.9601352
295.396185
289.8701479
295.5439207
288.5796985
301.5504557
288.2667051
302.9712477
296.2521686
304.6550305
299.9465972
294.1830529
294.1254395
290.1198906
293.1352683
281.3948327
303.1570232
309.4882604
314.9894934
311.0878145
304.0226822
307.1002632
310.8303611
317.056054
311.3939367
304.7633177
315.1913832
313.5191534
325.4720378
303.9879333
277.2395154
274.8714891
274.110617
290.1567813
276.4995472
293.511504
291.7457102
304.3015524
311.5060788
319.1761489
308.1746603
299.2167151
300.2521255
294.8969454
295.4168033
299.751341
303.6206468
304.8637633
286.329926
285.0286569
293.1335278
287.5648532
297.0261623
303.4817083
291.4396948
295.5786239
294.5496966
299.0480093
312.2193828
323.2216884
328.8969044
322.9454865
304.3866128
312.4226018
313.5176412
302.2192569
294.3578702
297.610439
298.3704458
294.4932725
331.1971154
331.5075048
333.4125331
319.9131786
329.5361292
320.1387296
312.3803275
310.4900086
313.6523319
299.5084665
299.4763203
307.2578909
309.5569024
306.8823174
309.9860839
304.1609111
298.1381762
296.3109696
325.5777162
338.4626182
287.7177363
291.9886691
288.4800356
301.0167744
303.5172339
292.1495604
288.4675331
293.1782212
286.9149202
287.9622393
291.3583107
298.5072341
293.9887787
299.131214
314.0364692
327.8105518
322.2427829
323.8464644
319.3288163
287.3345998
310.9711384
314.8739564
307.4760035
307.5971531
305.066535
307.2381328
301.8610613
299.0234114
314.1865697
303.3927807
315.1446442
305.149201
302.6056081
309.2358186
307.6104561
305.2188828
300.2699509
309.4448467
306.2911001
300.6496366
298.1568024
287.6089518
307.3064949
312.3158892
309.2464537
314.2817461
300.863595
310.1688323
307.2616597
303.3647994
300.7520416
302.0966546
297.6974545
281.3499125
292.245073
306.1704362
297.5145617
291.8575883
297.9684267
299.6180392
311.6349776
307.1284656
300.5626392
303.948091
309.9275919
298.3543092
295.7920674
297.0697426
300.8565067
299.3508882
314.8701311
314.3971177
310.3850308
306.480795
298.3686538
288.0536086
283.9794163
292.1136781
305.9454259
315.5913957
296.315534
306.2046209
310.6750925
307.0632629
289.2916535
297.82196
283.4589977
287.4520078
296.6503625
299.6393124
293.1591507
303.573767
316.6796055
324.6285736
330.8059639
309.5367764
315.0729801
318.7900781
293.1350732
291.5709192
310.6704625
314.8303832
316.0473912
313.8346624
312.1188572
315.3821627
320.9812315
298.4134973
290.0358569
294.4049725
288.7645638
291.6541969
297.218573
290.1825988
299.3276049
316.6827173
313.1029325
308.4042056
311.6176588
312.9482039
306.6592996
302.430941
283.6607012
272.4408388
293.3073154
302.0256927
316.3472859
322.6458996
318.8153222
315.9889324
317.1593224
313.43901
311.2413029
301.9304475
295.5673911
288.0438825
291.3062702
286.9212736
291.0500514
292.2466627
310.2070926
307.0190008
314.4271394
329.0602757
337.0162094
334.0975187
327.4515631
323.4649872
312.5431828
293.5061419
298.0519701
303.8965316
295.7658961
303.8104503
310.1642249
301.4906097
295.335053
306.9970914
304.7520076
299.5696494
309.2329707
317.9011787
336.9624175
325.4529374
322.493991
321.4330659
309.8369454
312.4081345
316.7124101
319.6640586
309.6602393
302.8360595
294.2440747
304.061462
298.2087042
302.8521325
303.1401681
301.0768417
307.1426155
298.5599945
296.9770846
296.8006237
286.0344804
306.819844
296.3874897
299.9448921
293.6272046
293.0154901
294.7105885
298.6430791
310.4950796
313.3184878
318.0828782
323.3224476
327.5882951
331.2990427
334.8862948
317.9237653
321.6621336
319.7265088
304.7285771
309.3999617
305.0686675
303.6746744
306.893915
294.0480436
282.0431429
273.5561805
284.1797681
310.756895
310.8878518
317.8504935
322.4118004
316.0666337
310.338725
303.9412291
328.2839126
328.8813323
317.0506008
312.0578322
319.8005223
312.6696635
327.1014344
328.1869618
316.2281368
309.1162102
305.0418303
301.7147863
301.2481831
312.5973009
301.7415521
303.2170776
300.7383821
302.5798324
307.5631677
304.0062944
312.7323692
312.2828658
313.44652
318.7351962
306.270848
303.0306745
301.5770455
310.6583897
304.756196
325.2254393
313.0153665
303.7600596
297.4911872
288.0296623
291.5364564
295.7780466
297.5234994
294.1947473
282.5425536
301.7939487
297.4939167
308.0006248
299.7524379
301.1876826
295.8149787
295.2758567
303.0680177
298.6717391
297.6003097
303.5912265
294.6908951
297.6815594
301.6123816
302.0907835
309.7624427
312.3391361
313.7142032
302.558189
285.7870258
288.0525306
280.5126752
294.8757715
294.9352298
292.2471355
320.0373895
316.445492
324.5570262
320.622265
319.8619181
316.8324789
299.8228025
312.0304274
310.9211764
302.9346923
309.3914845
312.5869987
317.0243775
306.3746455
311.740619
310.9596237
303.8877049
308.3873019
302.9954255
323.074698
315.3449759
325.5317687
317.8184267
306.9023364
296.657115
295.1404341
296.6688633
297.5197856
296.4078465
296.1581096
287.155087
283.4616216
288.6642855
283.8379442
284.3363187
285.1712779
287.8686902
302.790226
291.1377375
286.4633375
298.2536181
302.0074035
294.4234183
299.3709286
293.6564185
290.3264812
284.2899246
277.3844655
286.808934
282.2860478
282.8457663
300.0529591
309.018432
315.1637497
315.0932809
309.7152412
307.4768724
300.4710076
316.0921252
313.3638266
278.7934339
265.5500716
281.0029256
292.8169973
283.8158584
294.8376424
290.988445
295.877055
284.0048732
286.0423907
283.7456675
280.7866751
284.8352959
282.2499836
285.5422543
287.5358625
289.6597595
291.2448888
288.2165889
296.2746278
306.3804318
299.6118777
298.998783
295.0429409
294.8631084
288.1454177
304.4866162
304.3219111
306.7638395
291.857628
293.7138665
304.3511339
302.2064549
291.8692171
285.455659
276.2548361
276.0611621
298.0523291
297.9132663
296.8483642
307.7398206
317.5654546
325.8870616
328.3320731
310.4006473
323.7043884
308.5450088
318.1258115
303.8138853
310.8503201
292.3722404
288.8905851
298.7239084
296.8760594
306.0034394
314.5481244
327.9401842
307.3916357
303.3967864
299.3516457
283.9364152
277.7679817
279.227309
279.5162818
299.5721491
313.2326056
313.8674345
303.2522711
311.7561489
313.92432
322.7584685
324.8998554
312.4783138
316.106779
308.224178
307.851601
294.5355084
291.37789
300.3655498
304.084896
311.2656627
324.3448373
309.3442798
313.9437799
291.1554461
282.0361675
285.4854663
297.9547288
308.1215154
312.2954562
314.2832166
290.3508214
286.2183266
306.746433
317.6768768
306.019591
303.385842
308.3016967
303.0037461
307.0637365
320.1522922
311.6386879
302.8742455
311.4165271
298.8849586
298.9327837
290.5565036
290.7414937
293.00041
288.8427014
303.8485446
311.296256
312.544766
306.2314319
306.3867657
298.4119877
301.4488219
303.5803285
319.9936415
320.0278503
296.649907
291.6368024
296.6387333
294.5400813
298.5592198
296.2418368
306.3780586
300.2138953
311.8435811
310.0835197
307.4058419
301.4220182
303.613796
296.4144998
296.368627
304.4430495
307.1549489
292.5616166
298.5709316
299.584464
299.862127
289.6118023
288.8073841
300.2835653
283.5568322
289.0229659
295.0413543
316.3128074
320.1587128
321.2771704
314.2802692
316.9272955
313.3022643
305.596429
310.1470258
309.2719081
317.331576
312.6475792
317.7754269
312.0972282
297.0313432
301.903146
290.417916
303.6200661
314.3495853
315.3915075
323.8375436
317.2165592
313.7935539
313.1822345
301.5683781
303.8515702
286.9699686
292.096113
307.1433713
304.5647432
297.4696127
290.9085336
308.860787
297.4416174
314.7132963
319.4092375
319.4391907
316.5291653
311.0881492
305.4751615
324.6271518
314.3448475
319.5486681
299.9129069
298.8143911
289.9087718
301.1654004
307.6306394
304.5341119
303.5809437
293.0555344
299.9312441
305.8588374
313.1894298
322.5891251
329.1640266
313.5598201
310.2863753
319.1703308
314.1042057
310.9883543
310.2565334
304.4338469
300.2084566
288.9337108
290.8123959
294.6373912
294.1874322
294.7918825
307.3677061
309.7638616
300.7654173
301.5310474
319.420317
326.8850519
320.6454961
314.7161392
314.7935372
304.3710068
298.4107703
283.8225411
292.1067759
286.9319122
291.1664423
314.3147128
307.3914831
319.655621
316.0392158
317.3444909
313.9185345
296.9456119
308.9274997
313.8358943
319.3927559
307.3574691
304.0604827
300.7336126
295.4450453
300.6037941
319.3225496
330.2166967
314.8502786
310.613776
313.1307361
301.5690376
309.4294288
310.8391513
321.3375701
323.9936366
328.6764256
333.642977
307.3304833
298.5978788
300.5734709
289.8699993
305.447927
314.7148818
303.7799647
301.2587118
298.6114789
303.7042765
301.8563514
310.0336871
309.549942
309.4529835
319.1506142
304.1041824
312.8989854
319.7332937
319.6051629
327.2758069
313.3746519
298.8997663
307.811749
312.4636261
294.8322801
289.1178103
298.7785919
304.9799085
306.4695106
295.303083
297.90433
287.6057613
291.8754531
290.5238645
289.1680308
281.2600013
283.1447738
277.5307404
293.2234083
314.018237
322.2650724
323.311229
325.6036386
281.2064479
290.8031817
294.0569624
298.5217284
282.8640678
289.3844284
302.4672041
309.1207679
311.5767962
340.083711
330.5320262
331.2263344
312.3418773
282.9962935
289.5932808
285.8849642
276.8521539
277.2066017
277.7904862
272.4498137
298.5503664
273.4239227
276.7027284
282.4748963
287.7677616
304.230553
303.278989
295.6549663
281.7844836
290.4765439
280.184139
278.8451052
278.3025709
294.947508
292.6948387
297.6226996
299.0591813
285.9941238
283.8624977
288.79411
300.4238198
292.5904024
304.3538045
281.930016
292.4067912
298.9479006
292.6506166
290.9110059
296.3235107
296.5729764
300.4537853
301.2765495
291.7043753
290.6725959
299.7062122
303.7367254
298.6737649
301.8042733
298.7152445
300.4347304
314.8420554
322.0238335
325.3228451
325.4274159
324.6981077
300.4777436
298.2281374
287.6596364
293.2830584
289.6309772
299.4896203
304.3384729
318.9050956
313.9994489
312.5404172
308.8293478
310.8972284
308.2527878
304.1488117
305.9760709
304.3607006
302.4694304
306.357611
310.8545936
297.4123528
293.2199682
303.3889161
304.6350263
299.7102631
298.1482508
283.8252796
287.4478796
295.8832313
305.8749
293.9332207
308.6115663
313.2334695
295.4310472
297.8623373
307.9078629
324.86567
315.8315685
299.7102206
293.6629205
297.1859965
292.4027147
290.0226513
287.8743448
291.2198211
287.9934209
292.1807653
293.9989925
310.599597
313.1963359
310.9305944
318.9472256
315.5232079
324.0979965
318.7141056
317.2429354
303.7246768
304.2223987
312.6750421
322.3082542
335.0552354
319.88808
311.645257
301.1583317
278.1674704
285.7852541
282.1878136
295.531556
307.4925043
312.1234464
312.4060577
317.8621408
330.2297624
321.4522494
320.6035118
317.8227383
319.3561529
313.7660445
308.4166195
308.0649671
310.5467358
300.2305531
298.3286819
298.7813706
293.5872785
301.6709968
304.023268
318.7949057
305.8113117
305.4663654
297.4323008
300.0244963
314.5480203
310.4316377
306.5413024
303.8953454
334.3024456
334.7035605
316.5022368
308.5640605
309.8597352
301.6085921
313.1362509
304.6113215
308.904559
317.5793261
287.0128042
289.0329994
286.3020921
295.5158853
311.0935864
303.3790693
320.8571771
316.2218178
316.1698916
316.4321994
313.329828
303.7553712
300.8208922
296.9027344
295.5498794
294.5941337
277.8159781
294.0161086
307.0424041
296.892393
303.5430064
298.666997
307.2031311
306.0189904
322.1669685
320.3884848
313.2752767
321.7212504
321.4159
313.860218
314.5101167
310.4900943
310.5435529
331.8212098
322.941825
311.1953086
301.5822266
306.4302723
308.8888331
307.6817599
306.7554323
309.1773381
302.6041309
290.4007839
282.8974825
290.5297803
294.6053414
285.719012
291.04221
320.4753716
296.8728109
307.8931457
302.813489
288.3950625
298.383577
294.6684753
292.0038661
298.0051526
308.2936095
321.9624506
320.7074933
315.3406894
303.4652414
296.6409055
293.6289544
292.0210256
293.5797886
302.076214
298.8314221
290.5135554
309.7815348
317.9222144
314.4263102
320.6508578
322.942263
326.0888639
318.0889791
325.8205659
309.4191882
323.9311963
334.2092553
320.0354687
336.3363443
338.2291631
315.7742164
306.7392983
304.5566711
313.0795274
317.1750487
313.8101223
309.3202434
297.1086274
310.9544435
321.6471815
326.8414946
302.1226022
309.2667473
312.6632714
313.3345272
319.3847637
291.8960402
287.4406524
285.9275619
300.7567715
307.2882258
302.1724817
294.7164175
300.9938308
301.9203011
296.1591723
309.8767538
292.724038
288.084551
296.347412
294.5906748
304.3185904
305.1690535
300.5718633
310.7303108
317.4465458
305.8016475
316.5651912
321.1836559
306.8459251
306.8225768
308.626331
306.6214286
309.1393118
311.9745622
305.5089229
296.2152454
316.2575611
325.2221932
317.1364522
312.8835481
306.9828496
301.0261088
306.7305531
315.2555494
319.7795973
311.8742985
295.0061229
306.8800374
301.8212779
304.1056932
310.1535919
307.6650707
292.3726059
286.1126594
296.780116
306.6025284
308.0028944
306.043711
320.3748076
320.9586917
299.7179059
288.6427786
295.962562
295.8204616
291.9801059
303.1865016
295.25613
304.3008917
297.9432039
290.7814692
283.4531625
283.1688558
286.5520485
295.4506883
303.1692421
288.3390034
303.0895413
303.1714612
295.2977206
293.3203215
294.6487334
313.2356951
311.7084768
314.5045162
306.6708909
302.051627
288.0810242
301.3291159
298.5905011
293.7513545
287.4160983
281.1248089
290.9115837
285.1458531
286.6242729
301.255486
301.1070129
301.9657922
318.4197081
306.313343
308.1110835
304.1157021
295.5833718
286.4824276
289.1486191
290.2481619
285.6051463
279.3425271
282.5730055
274.866108
268.4832513
268.7215027
285.9477236
300.6649041
300.2695863
296.2176975
288.0993788
285.7432277
290.7084057
296.8859171
304.8293465
299.7073867
310.651245
314.9939761
312.0781933
310.2240016
299.1086682
291.587468
308.2501232
322.260166
314.3230013
312.189881
296.0140011
300.154637
288.8764286
299.3354452
294.93283
296.6688632
280.1937881
285.2950305
304.1913558
312.8192631
312.2830292
307.359573
308.2280701
311.2448042
313.9034107
323.8027325
307.3746983
295.6874626
299.792729
309.4329078
319.8671701
314.9752892
305.7051673
290.5321422
304.6839812
312.417927
300.5637015
290.7102332
285.5384938
281.1049171
276.3152696
283.4215793
294.8944443
294.186294
295.359791
303.2414853
313.9626089
303.8022544
299.957326
302.1490777
296.3225642
291.752286
284.9159464
305.4376958
298.5162141
277.7464471
288.408095
294.4297578
296.5627116
298.6524411
309.8218326
323.2100387
329.393477
321.9445999
313.3454394
297.0893462
305.9772816
300.1265874
296.6123125
293.4478393
299.0624068
304.0604543
292.7751516
302.2909812
313.606278
314.6832544
306.1245888
298.5655176
310.4864261
326.7096397
329.1537457
317.5404627
314.4129537
288.7208341
289.5644396
288.1757251
294.8181709
314.1694529
311.683215
297.0053126
316.9807769
324.5273433
315.5566711
303.1220422
292.7330516
288.4595935
299.4596492
306.8052284
301.9656033
285.8191847
287.9745296
282.1461496
291.0178859
302.0902442
294.9242652
290.943255
296.3785609
295.4774502
308.5327027
304.955152
298.1255959
303.3905429
300.3002103
290.4743591
296.1367528
305.4290546
297.182727
290.3852012
288.5599715
295.0766845
287.6151977
293.5509289
292.5641549
297.8333601
319.5915382
306.7696977
318.0566696
301.9295694
305.456598
300.8328187
298.525256
285.9032337
288.4444878
271.1906025
276.6965776
283.5217946
290.7616908
300.9518349
311.3040941
304.3630871
308.0776986
298.2110585
282.1494119
283.3538069
289.2165842
293.9209973
287.7470847
303.0784296
296.219788
289.2708025
277.8301456
272.8674045
277.1265492
292.9692608
290.1058924
283.6712628
273.480191
277.5471731
282.8859496
291.0489311
295.4590283
289.1063247
292.3545871
292.5317387
293.8709661
295.9483903
306.9022562
311.8276532
307.5042671
302.0861093
293.5742469
302.5047705
292.9846404
305.3285855
304.7071137
303.4654236
305.8021882
307.5220783
316.3268428
333.9061229
332.2178253
335.0265344
332.1494712
322.0085888
323.2297045
314.4405229
313.7486483
300.486762
306.9529646
302.6457073
304.4574172
284.8775718
306.4521739
316.7099394
308.7309634
310.8443404
299.6501967
290.0964058
306.3540946
314.9604358
307.9840669
303.471727
300.0179163
300.9520119
289.5573625
291.4309083
289.2598316
282.1096016
292.3419006
290.987486
289.3893296
307.9530065
311.7507216
272.3738395
269.7407421
277.0884098
278.1925441
282.8657048
283.8984668
289.434099
285.305089
284.683992
277.9554094
300.6564906
300.8500082
301.4979904
291.7295387
289.5052456
291.9916789
284.9519267
296.8564877
278.3027138
270.252032
298.0798233
293.6523781
299.5219761
297.9356322
305.2143378
322.4007549
314.5273874
302.5305254
307.8526405
302.3850576
285.7271833
289.5878904
300.9739638
312.1869745
287.4650909
299.5055445
300.2369084
307.1592068
308.5975353
307.2444307
320.2049665
311.3998703
300.6241303
304.6560745
302.645586
308.6330565
310.4550152
299.7750041
316.0933549
309.9784941
317.7341204
305.3608013
304.9746328
296.8027542
293.2570807
289.5509195
289.8146539
297.2451177
302.1394035
300.723081
282.8346584
291.8813783
299.6050581
315.9111231
317.7388171
320.4006059
317.4455069
306.3438563
298.0406221
292.8883639
290.7630394
290.8367845
290.3047032
295.0278867
300.2674104
307.1533798
314.9775256
299.0090952
300.6316583
299.0337982
307.8751784
313.4320966
303.5957906
297.5823715
309.6044684
303.0883698
305.4987289
313.0498455
326.5828875
319.9913623
317.9429002
317.7210667
319.7976893
303.4944987
307.5871547
305.4942083
311.1003218
313.5288826
312.555818
314.4540433
301.399007
311.5202836
317.2177884
313.6491455
312.4532301
301.0088607
297.8906427
297.2688192
288.0063338
289.0856262
288.9251954
300.1867956
303.4176316
289.3526711
303.4258653
321.9295019
323.7348206
311.5017666
300.5105689
306.716726
307.1927055
304.6544279
316.3431155
334.3739442
330.6720694
334.8763864
328.5566118
322.328965
312.0117455
305.9554092
305.6076172
315.8613712
300.470429
302.4528105
307.9206879
309.8522993
298.3800665
304.1678239
293.9623014
292.4211101
322.2171298
313.8564303
303.3894378
302.9623767
300.4108287
303.64083
310.1625839
326.2100531
336.8648699
331.3500765
330.0821543
314.6339819
305.9853451
295.9418088
290.4418625
304.2529564
306.9493538
293.3259126
302.7332953
319.5721356
313.8963602
302.4295243
297.0878902
294.5848254
295.0770771
283.4275757
300.3861695
311.1900214
314.8731118
310.4725587
302.5684818
304.3588602
319.263764
320.8975221
322.3577758
337.2762352
343.8273646
333.6837661
333.5190746
308.8782814
274.8080481
288.4628439
294.7655121
302.4483888
301.8954928
290.8267426
294.2836614
283.7352811
295.0356155
293.1340773
304.2470303
302.8620173
294.0301477
297.6488397
283.8710362
275.5864529
276.6575062
278.5415853
296.1944946
298.894609
303.8379731
313.8060002
313.010789
312.8542097
298.3095697
295.4523955
281.3702851
281.8458212
291.8693579
308.871774
314.0125491
309.9679019
318.8961193
307.8496606
302.9133423
294.479294
287.957911
296.8699035
302.9466936
303.5319345
290.8580001
279.2648117
278.366572
274.01514
297.2408682
298.825926
318.7203468
329.1733284
326.3743618
310.0664174
315.5207648
303.9075435
300.9071099
303.2343723
296.3187595
302.1968576
309.4263614
307.3731111
297.1865666
288.3552459
276.577602
278.5975695
286.2280416
280.0669404
284.854576
284.3470314
282.0002875
287.6188369
290.6408474
305.2959605
297.3311288
299.2748658
298.5178169
309.1142547
298.376867
300.6488571
306.9471821
300.8136944
296.0602691
285.0956349
325.6842272
317.1875545
312.9641584
321.3406074
324.3073445
318.8554889
313.801605
301.2837816
313.5755964
290.7875031
292.7757472
277.704407
281.9570302
283.2413657
292.0666351
287.2607466
286.9033495
316.1141487
315.986812
310.92596
332.7336351
334.0878932
334.6556207
334.8431599
325.7617144
326.2904522
313.3874739
313.2785281
306.2487743
315.5875981
316.0743865
325.990545
330.6909308
337.2935523
333.4830052
335.1082548
339.7902374
320.9601391
318.5893785
327.3614637
307.2769885
290.9817284
291.8665242
296.9730067
307.7500823
303.0693296
299.5690359
306.9986917
292.6803687
284.3542803
273.0236086
276.3279996
278.0673181
287.0126114
290.7905837
280.1302544
293.5007929
303.7573838
300.0394954
305.3756987
287.8822756
300.5899864
312.2756058
316.5382941
310.4875418
310.2519661
310.400647
311.0963714
308.5822097
292.4114382
280.5054748
276.8565533
291.3164914
292.1432066
299.7464576
303.8636561
313.029879
302.6041033
300.1970657
299.448815
317.4292882
307.7070434
293.7349046
292.6168712
295.7313502
288.8845784
281.5066966
280.0382682
283.5394286
300.4117632
298.4503622
292.9977913
284.0757078
279.3727882
300.7441315
308.3389981
312.4671058
312.8014667
322.9523813
323.8481757
292.2840461
298.7714154
306.7679264
308.8846967
297.3762101
284.0465888
285.0932693
285.7916779
289.3692544
287.5720519
302.3372576
307.4542514
311.3180836
299.9993201
306.4671665
310.4264664
290.7696123
283.1285509
288.0772527
291.1427747
317.986647
325.8424394
306.6652656
296.0099579
299.7511937
300.1233082
298.9633089
282.0588903
272.2088071
260.7860254
264.5515426
275.6565576
272.9040029
285.2307273
295.9926567
291.7732635
311.924747
307.844693
311.3572525
307.3798962
294.424413
294.8964971
293.6136671
299.1622958
282.5454871
287.1062832
280.5702023
277.1717491
282.2499322
280.387752
292.6668163
287.5713561
297.6236427
307.8957713
306.9952662
312.1082216
303.5300201
307.9378365
304.0945014
291.6727425
299.2866169
292.1772621
286.4970189
275.9440369
283.8623049
280.2587494
298.2500081
292.387523
290.0570768
283.9242971
279.7144345
275.8457474
284.5493212
299.0694508
293.3649759
294.3603875
295.0035339
296.7422641
305.8655654
305.8528012
299.0520806
301.8480754
304.7426444
302.134933
301.7434157
300.7947035
293.2046487
296.4469782
298.1739711
301.7294284
312.0335042
304.7458264
310.5962453
306.8018306
309.7607992
298.9088288
299.3187184
309.4100333
325.7711763
314.9146604
292.2057321
300.0273511
298.1873358
293.0420785
285.2792965
289.6245416
295.393027
301.0343962
294.6054099
311.332164
308.4631815
295.3114827
293.6646233
306.3105936
318.8540194
327.2135276
306.6894809
309.0054418
309.0667141
299.5621277
286.3562506
279.4144491
297.6700203
293.4752841
304.7847068
297.6897158
294.0154495
293.7177127
294.7457501
285.8580899
277.1184391
295.2100338
304.6058603
303.5443458
293.2661001
302.3150962
302.0858852
283.516699
282.2333093
301.2465175
315.7348954
310.8513728
305.18108
301.9655571
290.4093778
296.6445322
302.6084095
298.320002
290.9912629
286.7999784
278.0374307
296.8476682
287.6009044
310.1262648
326.7679115
314.945987
313.9813313
312.5933935
310.2851039
301.6132148
291.6113835
285.9245894
288.9103901
290.9966416
296.3146055
301.89532
310.3511681
311.6199276
308.0396489
295.8394733
286.3203607
291.3840461
282.1273592
285.9059367
300.8388242
289.9443908
281.9712903
287.1344303
301.5948189
289.8170585
319.4673401
311.9485934
318.345074
308.6815008
290.0992768
289.215448
294.5401968
286.2894789
290.4697821
288.0910632
304.0418991
300.9847884
296.7271441
287.5104614
278.2091447
287.8782839
289.6593159
288.008668
288.8890512
307.7422145
308.2263736
324.9476092
318.0032999
328.8198254
329.3061037
314.3055291
299.8071201
280.352357
282.3049087
284.6553331
272.7057907
267.5801015
273.5180072
273.6903485
290.8745504
301.3026992
299.5190676
300.4164826
284.2114605
304.8481428
291.3666373
302.3238189
308.4762583
305.2974911
289.8607567
304.6009631
299.9393364
285.7032589
280.2312938
282.6498319
287.9147932
296.9288371
301.1919816
289.4824005
284.2433382
283.5209243
283.4317645
282.1436013
282.8692039
278.8671749
301.228792
299.9312052
302.6419102
314.8535097
319.6035551
306.2963475
302.7860179
306.9461895
324.866516
316.0856112
324.8573464
314.2727304
314.7577616
326.3432464
329.0003353
316.5384771
304.3804904
297.396136
285.577616
283.8136206
306.6398427
301.499135
296.2338798
293.5072742
298.8329395
290.2851328
290.2457093
290.1025495
281.1041663
295.081839
300.0626734
314.6602983
306.9202225
302.3055804
288.4074805
304.2145588
311.7777548
323.7439721
322.1812631
316.4895045
290.8122414
281.4242742
279.2991664
294.4165937
300.5503051
285.0726724
295.1905657
296.0609084
301.1883958
306.2884839
307.2251773
317.1960703
320.9450804
324.4247058
331.9630374
321.9789162
311.1686155
292.3275164
277.1972508
275.1253238
265.0073051
277.5518919
290.9184912
294.5511998
285.2233645
290.6841358
312.197336
313.6478046
309.0011064
317.3004396
318.6048076
324.783729
318.9471674
303.8542116
300.9133634
282.3551108
293.6672922
277.7313134
267.5494167
257.1406361
301.6122428
307.2155688
296.4059548
292.6832007
306.2622418
303.6895554
310.9713087
294.7758346
301.0090819
301.2943387
305.452209
315.0109073
298.6362721
308.4783972
300.7360657
294.6068207
290.2015199
298.3418613
300.1029808
302.5797778
282.6300976
278.9119755
277.1588517
286.5710548
289.2525915
282.2336197
289.3075619
308.0563637
306.8093869
295.6121177
306.4270646
319.2074833
312.5125534
301.7107203
301.3983242
305.0827839
309.6585945
304.8303353
293.5734385
277.3336459
310.9956618
306.3250759
301.4415967
293.8114832
283.1264575
289.6518645
293.1133189
282.9498063
293.4684307
311.5628706
321.1169986
311.8090298
305.5037476
316.7155691
309.13431
305.4265683
304.0981016
290.5229848
290.9848785
316.3406449
299.8965556
318.4046663
326.264982
318.0280721
314.8845501
300.0792087
308.0588988
315.0574663
297.408384
294.6817749
292.7097422
285.2799194
293.5339114
296.3504232
300.28591
289.9296439
285.3564432
281.2717498
274.5923134
287.7495807
289.332958
288.1878334
285.9911197
293.426505
294.0435061
274.8982448
282.635539
281.5715201
289.8489253
298.2030178
309.2206874
307.4208981
296.6120524
290.6382325
284.1461835
296.488033
289.2048591
290.0376455
298.9433007
287.4065036
306.9213093
310.3032689
298.3348589
279.7941702
281.5946421
287.6748609
285.5843908
287.8292538
302.5974319
286.6926214
291.327554
286.8014817
300.040081
295.6097257
297.7980326
296.6068588
292.9930161
279.6163628
284.3754955
290.8927908
287.4213879
283.3181295
259.0657481
259.7751288
273.1187558
279.6079806
284.9093378
286.7472596
291.4144694
301.8860228
311.4038023
313.4865771
312.9534349
298.5214284
290.2562383
284.7820108
297.3012393
297.2210493
301.6394591
293.8441144
289.240124
293.3837927
297.9675007
308.0688833
309.3082817
297.0246512
280.8837416
270.6591465
275.3476782
280.9508359
286.0565
282.5652184
280.6773204
292.6398891
305.3693376
312.3729501
309.722557
307.6868641
295.0784145
281.2813984
302.2467967
291.8215375
296.4809155
283.3590086
283.3401069
278.0296599
293.0637905
292.2404367
290.8611403