/*--------------------------------*- C++ -*----------------------------------*\
| =========                 |                                                 |
| \\      /  F ield         | OpenFOAM: The Open Source CFD Toolbox           |
|  \\    /   O peration     | Version:  2.4.0-MNF                             |
|   \\  /    A nd           | Web:      www.OpenFOAM.org                      |
|    \\/     M anipulation  |                                                 |
\*---------------------------------------------------------------------------*/
FoamFile
{
    version     2.0;
    format      ascii;
    class       volScalarField;
    location    "0.0008";
    object      translationalT_O2;
}
// * * * * * * * * * * * * * * * * * * * * * * * * * * * * * * * * * * * * * //

dimensions      [0 0 0 1 0 0 0];

internalField   nonuniform List<scalar> 
5120
(
275.8270957
281.4850429
263.648225
283.9130627
271.0891081
290.7829646
285.6761569
305.8112214
295.6425904
266.4059948
271.4680863
296.821678
299.2017438
268.4785597
271.5606376
298.3234931
296.6874528
276.576014
250.2520922
250.4511751
290.5902598
291.9113269
291.5753836
297.1032342
309.277152
320.500247
314.6316747
304.2334458
306.442995
301.0586511
275.4613737
265.0845467
284.3627766
309.5007334
280.4301638
304.983161
282.5332175
279.4499887
304.8008871
300.4388676
266.511842
295.3461494
304.0062581
276.2230567
295.4518584
294.1706275
294.8529235
262.5232603
277.6684483
287.1557136
306.1783113
312.0457687
296.662298
291.3256659
307.5306191
294.8024496
302.2138787
298.2361989
296.7143037
278.6588445
290.1543283
306.792955
323.4802086
328.9162856
330.5622489
292.4105271
275.1269995
305.4293865
313.5475973
319.3197357
295.0276218
305.7441678
293.3988084
327.725316
306.8564918
283.9414908
280.3558851
277.8051569
306.0184466
295.9177078
321.0744956
331.7944018
316.4537083
307.5023378
310.3827637
306.135549
300.8177528
280.6225294
281.2135551
328.455845
324.341357
322.4820592
342.1734441
298.7530032
295.8552065
311.1119561
301.6665578
332.5098566
315.7297619
318.1820231
295.8088152
301.1128084
288.682519
283.717067
303.4605776
309.8397266
291.2649794
295.4270799
297.8391036
302.0961446
311.1049704
345.6786108
285.5599609
295.3110838
283.1714398
285.1475368
291.534141
277.6468316
266.0654704
289.8756482
295.030744
297.5154148
294.8116071
309.3483549
302.8511956
317.9286968
309.6410946
322.4798612
335.2650644
307.6118991
287.6283188
265.7047121
274.1554104
281.174702
310.9534819
323.4182126
305.7120941
283.7641817
288.0929252
306.5086225
278.6097066
267.8719685
273.7021543
294.2001304
305.9380467
291.3282652
334.4448422
311.0957652
308.4087921
287.3519437
295.8336446
318.5662706
338.9704282
335.3183927
305.4329727
284.9437788
300.2304044
259.6713895
289.3304091
273.205412
317.3358739
313.8468315
285.6816866
275.9225106
273.2286745
275.5398734
285.5204488
288.8640688
285.9002328
280.8730705
248.8526175
257.8002972
296.1786489
311.7983386
306.8474135
301.5880623
306.7056937
300.6182292
279.0707234
303.0015391
295.0248697
258.8330092
268.1993806
270.1372354
269.3498864
266.7324574
274.3324593
274.7395368
285.9002955
285.9000916
312.8005808
302.5922482
277.3633851
265.2037849
266.139699
317.9726644
292.5487983
290.8049246
319.1640842
307.3186362
321.0593409
302.9306084
288.738891
267.8653495
274.5475487
279.2319293
292.7881375
314.5011391
289.5675118
276.837727
302.9350392
326.9965301
325.1971373
328.5340626
322.5595415
321.3351881
325.4369974
339.6695931
305.367462
315.8224003
310.7105068
335.7494387
321.3835766
318.7347678
306.9002056
318.6052033
307.1512784
291.4526013
323.0412033
297.4985074
307.580218
295.0923849
283.78781
296.2055325
318.5076821
302.5644789
316.4507125
315.2587909
348.2915673
307.9653485
259.543401
265.1318904
252.4496181
264.1305326
239.4399328
240.2293332
271.7971141
300.9026031
321.5471023
337.8589864
337.4283496
322.6270749
316.9606416
341.1739213
322.347401
317.2017997
332.1738333
331.3117128
300.8805891
274.2592847
267.4124948
265.8773747
283.9068213
269.9724838
281.4408916
311.5637704
309.5025113
294.3839597
310.1497874
302.2277509
310.8748157
325.3547008
327.4162289
305.1260967
299.2691333
316.8950465
326.3651037
337.6127788
293.3551213
283.9474286
318.4333526
316.008822
332.4491498
335.3755022
339.7842932
309.3257487
296.3318303
286.6780179
298.1616303
309.7620283
334.3521857
307.1127169
288.5856675
330.129287
336.962614
313.2778567
321.1663869
328.4591946
322.2116704
334.2782377
288.5935922
257.8186286
259.2232295
280.7259687
267.0369057
255.6876451
279.8004487
299.1173605
272.0441333
279.9605126
249.8194476
275.6699057
291.908719
277.1226681
308.675065
273.3072237
267.8900396
266.3088271
310.2485812
294.7239163
290.3309963
295.8620646
289.5436149
278.0037465
297.3388293
306.4983017
282.8820023
286.8895234
303.9118383
293.7501034
282.690525
266.9422412
261.098822
274.0751523
290.7264532
288.2116384
281.9233521
291.9974634
307.7493384
328.4127023
298.3905191
304.5335104
306.1912058
298.6377124
285.8009344
306.968325
309.9923331
316.3811492
286.033361
295.7857143
312.4924775
286.9660354
303.5907964
296.2823591
304.3253972
298.9635705
272.9206646
273.2409905
266.9893346
272.0031821
302.7224305
299.3723174
271.9009889
318.1349855
323.1343019
315.862259
315.2071906
306.8913034
282.0650029
264.7013049
290.310552
313.4651132
310.9000152
293.9200882
278.3169138
286.9911225
275.7293453
281.6211933
305.3699593
318.5187792
303.4466359
321.6384387
305.0711203
285.9592509
306.0441332
325.9531606
319.69457
330.2448452
342.8745515
324.0497812
302.8570478
301.392857
315.2439853
316.5508228
308.3387915
302.3236798
288.8257836
300.3368089
294.5813565
308.5937256
303.6935783
317.853727
350.2332381
320.8937751
294.1318411
319.9387118
318.3110218
307.3887083
294.0063592
311.5822773
315.5708918
319.0166753
310.4166612
281.0377923
296.9652687
354.2360556
328.14055
308.6734399
296.0646093
295.9861055
268.0356218
271.0249975
277.6125707
330.6474186
324.9454046
282.7998211
310.3313475
301.1332296
301.9919997
287.9478093
267.6587402
280.3827606
276.1390345
292.0549128
290.4481842
286.2095265
289.2525902
286.957167
301.0522177
288.8750723
267.5149952
265.1093381
260.1654034
263.4410025
264.3822939
290.9720572
283.7369884
301.5273005
299.8943932
300.4086642
323.9557933
324.3180146
332.802837
311.1555651
271.6366538
286.6602237
297.9803437
304.8102663
319.4912081
281.3535617
275.5499241
286.2791917
286.7382045
286.0454574
296.9479228
303.585814
290.2023102
309.7162021
287.5526275
298.0869646
297.9712243
277.0992023
272.2895918
243.2937149
266.2653001
273.8730945
270.6266038
295.9739588
284.8226558
285.1732546
311.5053219
293.5083444
281.8476975
299.2182874
329.2778214
331.8465273
306.3665264
276.0491244
293.1607233
283.4547514
263.7663224
259.103176
255.118776
258.6236922
273.9424909
270.0929448
283.0003362
290.1388744
305.3158159
332.4179896
302.9532594
317.0905655
299.6626895
296.8406355
302.4541439
314.4005547
328.7203152
318.4938648
303.332405
283.3737715
253.6535041
253.331583
260.1388863
259.1196301
270.1973355
281.1053418
291.1633295
312.8590755
299.3762994
308.7840291
295.2180214
287.9761719
302.3594569
304.4341268
307.1931193
293.4086157
266.054305
266.8935864
268.9585443
290.5787742
305.7325668
316.5202357
331.4334773
290.6948955
302.9734665
296.3317433
315.7582784
296.9799613
317.7068884
317.8474907
271.0585876
295.760556
315.7960502
328.8396773
315.1099217
315.3385901
312.3767898
288.4052216
300.6362038
286.7874099
273.4967002
282.4293113
274.2133384
284.0792631
275.9898036
282.24517
271.1378511
270.2508042
253.1279313
247.1771756
340.0361616
355.4689387
321.9279099
304.0571222
322.2239386
325.2667768
342.1883309
334.5372884
323.657984
302.5566422
313.6537397
302.9689099
298.8187024
279.8256639
298.8760643
299.6551392
278.4063937
310.1100387
326.9396093
349.3532047
276.5796793
267.3337425
274.3017648
266.6036192
298.9299411
279.8628167
269.3499572
294.2972048
278.6856931
275.5852459
261.7376137
294.4415588
317.0470665
294.0971739
293.4306284
296.9264516
285.1728473
285.196677
287.0786443
276.2280969
301.0522643
277.8149705
279.9416796
255.9901073
280.6261717
310.4188329
310.9411068
306.1477437
320.0055069
320.5170941
331.5790089
323.3121561
326.9373592
297.2638667
301.981468
307.9800024
303.8076633
294.3289772
305.1887577
304.3109607
284.3528911
301.9176064
304.9737192
276.4624125
248.184522
250.9880583
263.9210179
271.5427629
265.2488373
270.5215368
287.2885318
281.9964141
295.4835832
298.9589473
297.2971465
295.2850565
303.6851672
308.5550835
313.8187515
301.1141785
285.5465889
278.5131937
291.1138718
309.8324354
295.7624331
294.523457
308.1840086
282.4881033
308.8719279
325.1052763
319.5448658
320.1977845
335.6657145
319.4262108
288.7225126
280.4668019
270.8749784
279.6691366
273.6188193
271.4368889
311.6408068
287.7971987
293.5809463
282.3047494
275.7819694
279.2837435
281.6708492
271.9349909
247.3934888
246.8733963
257.0501579
315.10716
311.9537498
318.0907544
288.6573951
277.4471414
257.4830016
283.0532861
271.9799283
280.18087
302.5421656
282.27143
294.4628932
284.3097172
306.96553
308.2503225
299.5167324
316.2849812
316.6275469
294.5539702
275.4985069
294.6812895
298.3496741
309.5492109
297.3810566
312.1395431
337.2272774
338.1451238
298.1007544
308.3677834
352.2306522
314.8255476
293.9832814
321.4063013
308.8317418
312.8956176
317.0329313
321.0428409
307.6398787
293.6915542
282.6408424
285.4702885
310.0988845
291.197228
297.7951766
295.2441006
274.8591923
288.6486296
291.7390603
333.6671525
327.7908623
340.7775652
339.387811
316.8732506
327.0469485
354.3046654
331.8568082
294.0406975
283.3012875
275.9700887
297.4745572
311.8650383
290.9895968
324.0311591
303.8494406
289.67741
290.811147
318.2855814
318.2937796
347.1835144
289.7274838
303.0937055
316.6053592
315.3954381
336.6987563
302.3724422
299.4468432
295.3878109
304.0612007
312.9616248
327.7246667
297.4935254
274.1178858
275.2015427
299.7750294
287.380144
252.6966009
269.4679907
257.1645696
255.8890329
303.8788853
302.6885127
293.8689924
279.7612049
273.9629557
283.9920295
281.0808771
260.9182203
282.7324069
287.6666814
258.9864601
257.9007442
272.9826494
293.5655779
284.9588355
297.2267677
289.4539006
294.4042962
282.830233
308.8243112
304.1872172
303.5556465
292.5305491
280.1980225
318.135684
324.5780869
322.9804626
305.7348907
293.1438497
307.9032355
286.7940046
307.5846466
315.3650048
355.3065339
361.308052
330.194219
305.0372896
288.075005
287.4894378
291.5030809
302.0775969
351.2609101
346.938987
346.2553316
323.8226797
307.458282
300.5139333
285.1265932
277.7599862
292.6895029
249.7235049
237.6190943
266.7133528
244.3970202
270.0668955
265.2285347
288.434377
286.2191431
309.2534743
308.8398174
287.1197911
277.5197318
288.2910452
312.5982975
319.4257214
310.518324
306.0821573
284.5193434
302.5551099
297.3950692
266.3775014
280.317566
283.998018
268.322556
272.681928
293.3988086
289.1567812
286.5033737
266.2195056
264.7341721
314.0154992
302.3971313
278.6033164
287.8868334
309.531489
302.8180468
308.1266373
330.0297369
306.221132
296.5169434
298.4105181
296.6603591
306.9107567
294.4282596
312.3072041
311.2872248
320.5967742
303.4177726
334.253029
319.926433
283.23655
306.5417062
336.9504226
330.8253198
305.5878646
317.9147081
292.4923334
316.7788243
319.8328183
340.2844563
342.3808856
324.2606195
324.3803638
302.0049138
294.2936246
285.1668611
287.3120777
303.5972498
294.8939742
296.8546652
309.5667044
331.6443452
355.0673971
343.0732543
331.0812315
316.0934924
295.7498522
298.0154174
303.6163281
301.3211557
290.8088044
280.6751521
301.4653643
301.0157901
306.3753457
311.2945991
318.6980989
292.1777284
283.7866899
292.7543022
319.7553571
312.9809732
294.5410889
316.3796928
261.5862195
279.3825227
278.3699691
266.4894611
262.1441961
263.3528497
249.8157979
268.8287465
302.2255443
317.091094
303.8285472
273.8710339
270.1244984
277.004205
316.2511493
317.1308674
337.2209483
289.5887046
290.5158807
303.7907827
350.4895582
313.7153489
301.9350668
317.4263892
295.3867014
278.4875523
289.5126136
306.6518226
320.3583589
326.3431664
329.1471707
309.4389233
325.1359667
335.6494002
342.7326574
372.4736512
290.3615863
285.4504553
267.8659163
278.2927874
258.3976045
288.5470585
284.0687144
302.3438806
306.4541666
297.9341523
301.9611475
317.9670762
290.43992
293.469162
302.8220031
310.9378461
305.2385768
285.9975183
264.5268974
283.4642612
279.6122448
256.3939203
280.8329378
278.8561964
295.731105
310.2009838
295.2635812
295.2552401
298.7440118
275.9379662
305.6427406
292.5265562
282.6181684
291.7747698
318.1103205
314.6658663
318.1084906
286.4946141
287.5236519
284.7865884
284.4135681
275.5786421
249.528358
255.1619676
276.6254227
275.7788921
281.6590387
286.9517968
319.4662824
336.5168828
315.5396856
324.6586531
321.1123048
294.401361
270.2711044
281.430926
319.5995676
298.9808954
317.3975311
295.6423513
288.8824636
291.1378812
273.46828
249.5067399
263.9402423
273.7504745
286.8403351
282.2512101
305.8163464
318.1987075
349.2189132
312.2383417
299.8561267
322.0308504
368.5312692
294.0660773
270.5271328
271.7461967
265.5861541
299.7389276
291.2045877
307.5697104
323.2829881
312.3677487
305.6029915
328.3596085
317.2294959
335.5578712
330.1578614
308.2018076
289.9752163
326.6616145
310.44335
297.7519381
276.5548821
293.057498
299.0260412
286.1563953
297.1542969
273.571763
340.1681952
338.60467
309.1514326
304.4687979
297.6909518
296.9398682
289.7396268
314.5087893
303.7550597
318.9471811
325.5864706
286.0727719
274.4380865
244.2498311
254.6822759
270.9354493
307.5144886
327.6573433
338.7254725
334.4966734
327.2140221
297.9668238
303.3594798
324.5705024
299.8265851
310.4137646
307.4308886
315.3507837
287.2498295
314.5349759
319.1619936
296.2488329
299.7541521
301.1762806
311.5327126
280.177143
252.5863709
258.5938506
287.8087433
306.979399
267.1076591
277.9716811
278.3597992
300.8426628
329.4098638
310.8074853
289.3826573
307.2162108
299.4726888
310.4420489
303.8465497
320.9822439
297.4784569
297.4979956
295.3164917
293.0068611
283.2801981
285.937246
266.3229044
288.4701663
291.0420814
280.8155364
311.0527185
301.5976283
298.7662572
290.1634312
278.5294182
298.6608154
276.602538
261.8607113
284.6289039
313.3048874
369.2010624
343.5576611
311.1407574
293.8166067
312.2673821
296.3480156
325.8967375
313.9588698
307.929764
319.850546
303.7769799
305.6199756
316.010713
282.5499686
274.4417899
272.8069303
270.6950456
279.0547791
302.6039416
305.159462
301.1448994
288.8530373
288.7780774
314.8038272
305.1118081
295.9655866
288.5220005
278.4733915
292.0930247
291.8738242
265.1834766
275.9876795
276.1545643
280.9751083
274.843395
276.0649347
272.5832354
301.5498654
314.4351015
329.4276588
313.7682794
298.3237622
299.9927735
303.1450743
299.6890636
297.2748701
291.1456248
312.6666131
336.3120567
314.0270539
312.9080682
308.8377933
291.5258479
287.7665776
273.7236282
296.0234535
342.8828621
334.8364184
323.3102199
332.2898635
336.0950758
309.9144439
306.6688854
284.825019
269.8841884
319.3036096
319.1499949
341.9232592
304.7603601
299.1448945
282.6998105
289.4188936
304.8543185
289.618985
297.5906019
265.4884252
293.5478067
313.9801887
305.0698079
274.9039961
285.5995135
276.9185056
271.6804192
293.5883844
281.7920836
287.9905062
294.1872316
289.8065477
256.3181066
281.1027623
293.6883456
315.4283208
300.501763
281.5798223
291.2060453
262.8724127
252.8827215
240.8124843
263.1191947
278.2576146
273.9164735
278.0526655
269.292351
255.7339963
277.3531625
279.8624014
279.4846227
251.5367366
301.1856463
292.9442072
283.4508473
249.4390236
256.1313514
273.9869824
302.3852975
311.5123148
285.9530015
289.0294396
283.5649564
293.1500051
272.2430956
289.0267483
307.9287221
308.6651805
278.6385665
296.3962656
284.0004108
275.3444111
258.9011293
289.2693998
287.6676237
303.0786844
285.4082921
281.7125725
259.3642597
265.5939571
274.4279019
276.886912
257.3586146
262.2112529
273.8021507
271.3091753
270.5645956
293.5377205
268.6489545
278.8663366
297.0030642
251.5183952
267.0975337
279.73178
301.0919318
298.4600103
279.5464922
281.7071075
281.7154388
251.8963972
260.0439598
274.5208499
297.0643447
319.0018986
327.7062464
345.3076881
353.2748706
349.6449866
346.6655644
341.4710965
311.4734872
286.3082065
321.1448621
333.0304516
311.1036654
317.1214153
303.2274911
325.429803
314.5604517
313.2917032
295.6763458
332.9365889
313.399167
326.812395
305.6083042
305.3411484
321.8405974
326.3678729
335.6701222
321.2204132
303.2166172
337.8070336
281.5898235
272.3059151
306.575163
308.9899242
269.4212482
283.4909748
309.0722161
321.1206163
319.7286048
298.5954186
296.5088203
302.0674609
304.875569
321.2569441
296.2747021
295.0814308
311.9672328
327.0708152
309.604678
283.8311649
305.5740742
301.8710623
281.6044726
300.5351886
317.3883466
312.4451756
280.6872763
298.4414362
290.4921616
306.8885497
280.643125
291.2197601
307.8497328
265.810574
278.194659
299.0100834
285.5688717
242.9787575
253.5419878
268.0165773
307.7025865
304.3435436
310.3510945
296.9990798
333.8930234
321.9131777
317.6221178
258.8505188
277.4433169
300.2815451
301.3829045
288.2974668
285.7343931
304.7814373
304.2601659
313.5245293
341.5820406
336.8795383
329.007033
311.5481068
313.1395019
334.0763357
328.9858241
305.7573171
328.0593746
318.8169774
326.8743533
343.3563482
348.2122165
333.5572059
337.1257563
355.1530751
349.732867
319.3622267
319.8155997
337.128589
333.9042506
314.2860068
289.6993368
307.7571233
302.3259068
321.9541726
304.9755423
336.3109742
320.6947846
310.6983819
314.0257058
327.5125348
307.7259263
292.9052452
304.3693941
331.8377726
312.7364991
316.9686572
323.9843487
323.4294597
321.5549211
347.3541103
344.3262477
310.0372762
284.6166038
265.0250296
297.1627271
314.7798928
303.8470387
330.5263769
324.5398832
295.076653
298.2432884
296.9963243
288.7053118
313.2040443
322.9380401
328.3112073
328.0349657
296.6812095
326.0900909
297.4644037
302.8521518
295.4107116
298.0319562
309.1538718
301.1160182
300.3278038
292.3647019
278.3520721
271.1694321
263.3921647
271.3244029
289.0690542
295.9665895
317.2466228
306.6809291
308.8644869
283.0806682
268.6750187
262.5613651
280.2021599
285.8486653
300.0971904
298.3317985
286.8213176
278.9936978
275.2677972
287.6117696
284.0155942
299.8498217
293.3123427
283.5060604
283.7640918
288.8763898
299.707905
313.7693361
294.3253445
290.4235487
275.1594534
289.2022783
282.9233534
280.208667
290.7272684
278.8581397
306.8940921
336.8902553
298.2499529
279.9916958
269.4975125
277.6962461
298.6928065
289.3331136
272.6673534
288.4896058
279.1702
265.7681662
264.91016
255.3508598
246.5657724
267.1222019
295.6827354
284.9607063
265.2020998
288.1149788
275.4143663
287.5982949
300.7432502
288.8450888
293.0550395
314.5747933
322.464476
277.2272329
291.2839325
282.8681844
282.9131138
289.2546486
287.9702652
291.0462677
287.5354361
279.2773291
261.902342
288.4230716
286.9504441
305.7735012
299.6881195
308.7749272
298.0816597
302.9368003
312.9062974
295.321079
317.2250277
298.2701358
289.5238065
283.7270489
271.6253463
298.3594202
280.5324316
298.7256707
285.959165
301.473804
305.4385716
287.1667377
300.9814058
274.6072679
255.8047758
276.2869184
296.7432761
275.3219052
303.0729665
298.5722691
277.3005516
277.3383748
278.3721964
250.8052233
244.5312688
277.8504833
280.1872347
290.2116698
306.1982482
302.7068219
299.6809687
312.8225065
285.6853294
276.1643038
289.8193697
270.0416142
259.3352965
265.308741
266.8163275
251.6567456
256.1627962
254.8358974
236.4115578
251.5583181
254.2126116
248.7021996
267.2240146
288.2437964
311.2504561
330.6958553
319.5778226
313.2152303
294.4990494
329.0091916
309.3452425
285.2618123
299.8141405
289.9603446
331.2550717
325.301612
311.5833912
307.6985174
325.5571092
315.8129447
324.1871401
312.7317411
301.4873043
279.7936315
300.7918576
318.1831766
323.0118003
304.3557609
323.3006218
317.810082
319.7532005
348.7929807
341.3794458
348.382077
311.2700672
304.5581461
296.0240539
280.663639
286.7745668
306.022324
312.9291084
324.3993752
322.9480163
310.1713055
339.0282794
334.993218
335.1362977
327.4957289
304.0989345
277.3550107
302.2596088
298.2929203
308.8301396
282.8707945
267.8705767
266.4024135
321.3887102
333.0250269
329.5868683
316.7837071
246.3630438
251.3446116
272.1810936
314.9561511
345.3485453
310.2363489
320.7675355
312.4913554
325.83248
293.4069196
274.8902128
291.9865645
298.3293307
303.372817
302.5086804
308.2268075
295.2538787
273.9716987
296.139073
278.147008
315.9309357
296.7948673
342.5662601
318.1460668
299.3915277
293.1414409
293.6931353
322.9730033
297.805698
296.1080252
282.2021299
268.1618149
272.2307411
285.2519479
302.6991329
321.6487446
300.1114557
288.9722439
298.1588911
286.3010857
306.9325469
274.5364346
281.1981555
283.6051216
287.9948029
271.0956696
280.9326471
274.981801
261.0753269
309.1532581
317.2277659
355.1978676
336.8807016
344.2086327
362.3238571
358.7943182
337.4864479
299.1398484
282.1482069
283.3691209
287.3451446
301.7206644
305.1022878
303.9335689
305.6588279
301.2357863
326.3003587
320.6404698
312.2994027
313.1913817
318.8891434
355.6706999
367.6068819
353.9156218
348.6386827
330.9133564
288.960247
273.3610202
294.7079791
303.7227368
297.4849174
310.2875855
310.0305631
311.5158772
302.7239407
290.5578058
310.1928371
347.4653887
320.2811216
338.236373
320.736206
279.7009943
263.4780826
262.4272654
287.0287399
292.9414749
300.880876
334.7064847
344.9457289
340.528489
318.5599286
298.1134613
310.5797863
321.3097289
315.8165018
313.5918141
316.2114412
327.2407336
333.6646176
283.6858366
298.5156359
294.6902421
328.5651181
345.1853077
341.5206679
354.026624
340.277755
315.8639048
306.5419073
299.4789419
278.3046673
270.7851332
284.2402237
308.6141398
323.6270245
323.036483
324.9786119
312.4319082
313.7199566
294.6777975
293.0740073
287.6304169
270.8953188
282.40275
275.1449743
288.2823805
279.8346709
305.7743883
296.6633651
313.363478
326.4073708
307.0471569
316.9152539
315.0469496
301.3420315
297.8416192
320.6426052
300.8646727
304.0706111
302.444469
307.1857286
279.8038683
284.6615658
282.4110367
283.0332728
297.6152948
287.961898
307.1668177
301.6169443
309.9130434
306.5070006
292.8284679
300.7551756
306.9579251
291.8333621
284.0345283
294.0857601
299.5458163
295.3836943
300.3350626
289.0984714
291.0548415
276.1143743
294.9046762
309.5334189
318.3252167
316.573653
297.7700963
324.6269695
292.4863882
293.0211708
302.6159862
295.4494403
283.9740032
285.8393865
291.0088232
273.2977852
299.7220511
291.9860477
252.5727967
265.4520864
285.2596387
313.2297518
319.4712643
298.6199225
287.4270042
281.5496223
279.0080462
305.6323818
328.4557913
297.1711144
315.7787291
317.6053455
298.7927719
285.8794861
291.5764936
274.8010919
283.7889487
268.5138394
304.7141846
300.084272
309.1473824
296.6862429
306.826671
289.3704437
316.7102812
273.4181364
276.0106035
286.6087574
286.0777146
291.8240134
292.2267714
279.3026586
279.8918305
303.3886155
353.4177442
350.7617415
347.3748096
356.4662584
319.6036449
330.0308181
293.4340713
292.504932
308.4636821
299.651084
296.8778295
297.1876846
320.5820786
297.559256
322.1793245
314.8098338
309.3391288
323.3717799
334.4519562
314.3512171
274.4906297
278.5710817
299.8437614
321.7019462
319.1913909
280.2935894
312.5612481
319.5101501
296.8053641
306.7283963
318.0691888
332.0672971
327.1112665
306.5171239
298.3851983
297.9514999
281.1390874
277.1903151
284.367725
277.8781285
286.3128946
270.2543847
290.244261
301.6665423
257.3687012
290.2667368
279.0669489
286.339935
281.4472848
311.0265365
319.1679035
326.9878574
331.8786502
302.504364
351.1233256
342.9764947
344.3946133
341.1533814
311.0598359
299.0174674
271.3570656
313.3447165
322.5183805
308.8395358
357.133236
305.5473596
313.1754592
327.8113208
283.2725214
272.4293703
261.159217
267.5285908
284.7273455
266.2058043
264.2484862
276.5437328
262.5984126
282.0295084
260.4498651
270.7914547
279.8062218
284.3316884
321.27551
340.248098
344.1162048
329.6044186
307.576398
321.8725494
305.8733576
305.2987589
302.3964404
310.9140271
307.5435714
310.7918859
336.955342
337.5028318
335.0406433
318.1220932
306.761285
298.5710313
302.5057716
290.2627225
301.8568422
316.1629779
355.9228247
331.1184254
281.8614179
304.5247503
325.7646679
346.1892995
346.3159662
343.5688174
327.1839629
314.1230879
306.6438425
299.8452095
287.6139591
258.3423306
272.776209
281.0717946
306.2271493
296.1033616
301.2664168
319.1578053
266.7031159
293.179859
291.2843321
281.893825
295.2136979
283.141965
297.7099879
304.8533874
288.3183673
267.6687002
267.1304177
272.9644727
289.0673232
315.1171795
313.3084317
287.7366059
294.3247513
252.7773141
276.7031566
294.3282985
277.0545804
298.0461056
296.0046195
305.5644062
318.1081807
302.5324943
278.1721301
298.5043327
298.359339
297.2437895
323.392048
311.1500811
325.0659027
323.0933895
283.7408281
280.2788234
312.775115
294.8848816
285.8430048
291.2891093
286.1216974
289.9399205
304.6687944
315.4635843
334.1411378
328.6510185
335.196386
336.0024182
326.6050743
297.5909735
272.9803992
288.0995761
246.9208932
258.6672458
300.6241744
319.4652533
326.510196
326.9236803
318.197041
284.221932
281.3581729
287.7198345
283.744692
296.3468718
301.1752672
289.5239941
288.5611733
287.7645901
280.7984526
286.6663299
281.6846527
284.5160286
301.9364263
277.4114412
247.729685
240.0344406
260.6376442
268.9741633
272.6018199
280.0940939
305.3245086
272.3508016
281.8816212
263.8396324
276.1157584
318.4941184
288.1872573
292.0500964
290.259609
280.5453855
312.6811719
320.735482
311.4441433
323.7457015
299.121912
284.1613604
310.7691468
302.1323262
303.9594462
299.6583014
311.7650657
314.9763655
310.3631093
275.1364965
292.6139383
290.1247449
298.9535168
320.3805442
308.8074549
304.6395758
283.6232129
253.7149921
298.7953389
320.7453801
293.74439
304.0059375
273.4340237
299.2950004
289.3173481
284.379857
307.3048607
279.046014
291.6689541
315.3878522
299.0776611
284.7277239
285.1825626
268.8155215
265.3526725
274.5477475
279.1470634
288.6473769
296.3064165
296.1045989
284.7420693
332.9620182
331.0380634
331.1523999
314.7922538
311.8246168
316.559818
319.1774057
319.8015022
329.1742552
325.9005336
323.6144511
287.4817708
289.4823638
306.2900751
310.9613549
309.9920254
323.6646404
317.5735515
295.8467527
306.8891398
279.4542422
293.1147534
280.1586128
261.1422157
295.4051783
274.1712379
257.5540714
286.7601446
251.8932207
269.7790212
288.9664081
305.0489401
290.9137711
277.2370312
278.0351258
286.7483202
284.9150055
278.7538205
270.4965521
315.8909253
297.8965614
265.743755
271.0374692
261.7843406
252.1108807
284.717736
314.6824417
332.2736497
311.5184836
301.8140661
318.2815773
306.2842342
292.4509934
291.7658177
290.0111001
264.8130258
271.7144788
294.4945788
288.2365515
286.5018017
263.5449191
254.1088031
280.8032993
311.0930906
297.5915873
313.1366688
320.1236153
314.8869694
311.2519541
290.4758909
271.6018717
259.4935876
281.3420363
273.6768912
291.4607339
288.4804163
273.6063791
280.695852
297.2960967
274.6928099
277.8690239
310.9818462
334.8197844
317.5889343
321.9821528
303.3553788
306.5107051
289.5177192
305.8946695
303.3494434
267.3599031
257.8144707
259.8052064
276.3104783
286.0066393
280.7501829
304.2606259
296.102169
283.89446
287.2010387
291.4507152
315.7805115
292.6663254
290.2508124
288.5148969
312.1565663
310.3434943
306.5967463
322.8528578
354.9246036
337.7085949
296.5027785
278.1495758
280.8296583
319.1915672
320.7537973
311.8505019
308.8740137
301.3221128
288.2633026
278.0094035
271.0084126
313.6549066
304.0362407
323.8911076
301.7944799
313.5315994
318.9555632
281.3347155
272.9088005
286.4426769
279.9260832
268.8667395
244.0537413
257.4735995
279.9430563
319.0532367
312.18949
316.5109003
310.480292
304.9721728
303.6053012
260.9125895
256.6933889
293.4120749
315.4407115
295.6711255
314.8468254
301.7065956
275.3818702
281.5583656
277.0411114
277.9837825
287.0718076
279.9769522
265.6717235
271.5523492
295.2528877
284.4088137
293.6810692
303.3795784
297.5855231
280.9193416
295.9833136
287.3525822
309.9724203
327.8100979
342.5454673
345.869525
328.6125799
317.7649161
293.4441965
302.6803206
324.1651747
339.8948058
363.6731069
361.5008597
362.8193393
353.5877828
319.7836261
357.4099529
359.3354457
360.383775
381.9845788
346.0621192
292.5304465
294.5871697
286.1420038
288.4884491
279.0399905
320.1432155
318.8319454
313.00184
307.614396
339.7173375
307.3553569
314.399399
299.5376148
287.0084439
289.385741
263.4132925
273.8461441
313.4587765
302.8812945
299.5271138
309.9530031
295.3194738
289.0652744
295.8856154
308.4941846
317.1279579
336.1110369
336.7123285
343.2223073
349.350746
339.6128715
317.3022501
293.7815543
303.5866124
284.59689
303.849827
264.0074003
276.7160377
277.8424342
275.6649746
283.7500032
303.6946968
288.913152
270.1250415
283.8569926
293.862333
294.9189158
319.8974388
307.2467844
287.3225191
303.421019
312.5775844
324.351688
312.7469255
314.4084169
299.9261026
288.7432812
288.8599737
306.5724732
286.9935917
295.1776684
294.9663714
309.2996463
294.3622088
295.1651447
286.9823223
273.467751
249.9028868
259.1933671
257.4199874
258.2937498
265.2630523
228.8967534
246.8731653
259.8571112
262.1849018
296.6822259
312.1250006
304.9866365
301.0273448
315.88745
319.4735774
305.3488061
300.8029863
296.8767825
280.2929948
287.7535752
289.3530016
283.1333794
295.5833679
288.9486395
292.5050364
282.0771491
274.1981702
295.4254642
316.0186292
301.1148392
308.1467693
294.2511287
276.0073393
305.7590674
321.6194117
348.586119
355.1825354
319.7443135
296.6635109
284.666434
248.9111889
288.8904723
288.9500981
322.2553505
309.5463277
279.6804301
288.6747429
292.2576249
294.4310451
295.7958439
291.4937911
288.281496
298.3232842
318.2937008
309.3312873
281.5603898
270.2889302
293.8302947
296.337474
306.0653575
316.9878478
292.9854431
260.7006026
274.2265153
294.8893129
289.3364863
285.3921572
279.6762954
294.8894359
284.2186937
299.3282271
317.8316391
304.651877
298.6972799
297.8612424
301.7050845
332.7177153
306.7618572
300.6002238
275.4998161
285.3789763
285.7613991
308.1154109
305.1155989
279.1580854
281.4707494
250.3107165
286.6334276
331.9791458
330.4441255
302.5024493
317.5214346
292.0733459
261.249812
304.5605197
292.1110712
279.8056432
285.0457542
304.6053763
300.2593499
278.7425091