/*--------------------------------*- C++ -*----------------------------------*\
| =========                 |                                                 |
| \\      /  F ield         | OpenFOAM: The Open Source CFD Toolbox           |
|  \\    /   O peration     | Version:  2.4.0-MNF                             |
|   \\  /    A nd           | Web:      www.OpenFOAM.org                      |
|    \\/     M anipulation  |                                                 |
\*---------------------------------------------------------------------------*/
FoamFile
{
    version     2.0;
    format      ascii;
    class       volScalarField;
    location    "0.0008";
    object      translationalT_N2;
}
// * * * * * * * * * * * * * * * * * * * * * * * * * * * * * * * * * * * * * //

dimensions      [0 0 0 1 0 0 0];

internalField   nonuniform List<scalar> 
5120
(
296.1401783
309.5499387
298.9494792
290.8644526
302.8556375
317.3026557
318.0937109
297.3805906
296.5757037
311.8645722
322.8860323
313.6900052
303.0084829
287.0075581
293.3003622
291.4098137
282.5051738
303.940626
303.3195738
298.736834
291.9400524
296.8760557
313.8822156
316.0281874
311.1183928
304.8532303
294.4074889
305.2167992
310.2554851
296.3506236
295.3051676
300.264251
297.4798141
301.5444269
298.4019292
306.3638634
287.445453
283.9055857
295.2379873
294.3013077
288.3525261
298.433694
290.4855893
272.628805
270.7935352
279.4240177
296.8545231
298.7753303
292.6122133
298.8215481
290.7222985
291.9142363
298.5530919
308.3486967
314.6001619
305.9018495
297.8238093
311.4013328
310.7417779
292.0641027
289.5810294
279.9991396
278.4491706
294.1323228
303.4719403
312.8729237
313.1008071
309.0790829
306.330789
290.7547789
311.8953575
308.2134007
299.8972279
302.3205047
306.3319464
307.9432273
319.8568813
314.0752997
299.2099332
281.9569923
298.016901
309.5339746
303.8167442
288.1037673
296.3400558
302.9195535
313.6520174
299.5267477
297.2515383
302.8085889
289.6013388
294.5998788
287.8238285
282.6102603
279.8040526
289.6499433
302.5248881
299.8021006
308.0470092
305.9225418
305.3412636
294.8549694
327.4793072
313.751565
302.0247042
288.3262205
301.5624353
301.3290745
308.8060133
294.2567772
297.5227838
297.076009
299.0632466
303.3244912
313.4530523
323.0671672
307.2863654
312.5572699
304.0401127
301.3264295
308.5158603
304.0612919
285.542104
280.3165535
291.7769528
298.5120009
279.9801939
291.6269272
290.8464443
294.8179712
284.1392827
277.2342572
271.9764101
280.4724468
299.0623374
308.3785521
306.6203358
305.5606209
293.4016995
298.3532757
281.8029728
269.8704178
288.3414233
289.0490561
292.1695232
291.59134
302.7183893
289.9542933
278.019058
288.1029146
286.3072629
279.616847
292.0994739
303.1179583
292.8270165
292.0823464
293.5822041
290.0566584
303.5745649
300.2233483
290.14738
297.0773444
297.3313687
277.0439741
283.7929432
284.0097435
283.6910045
301.6281173
308.9869792
308.5707015
304.9516196
317.1855882
296.0736485
292.5025267
303.8817759
289.6176488
287.0462903
290.9329717
287.6561385
291.4476489
295.773173
293.7285779
289.3957122
281.5921973
286.6545552
298.3698113
299.2773929
294.3085755
300.4609227
301.6509436
296.9415053
285.324204
289.5416569
293.0188487
292.7487914
284.3762481
290.4273838
289.3478268
290.8678607
298.8255207
301.4253651
311.9540538
302.1160142
293.0737791
285.5050942
284.0761736
282.6462658
293.8641112
288.2922134
296.4800115
311.4033822
311.8295232
299.6795547
287.9050538
292.6256442
309.3742099
304.0724907
305.0986327
302.6467983
298.0384955
294.7281988
304.0480002
307.1822669
307.8573694
296.6873089
298.464454
288.5851985
301.4272079
300.6855515
296.0505128
275.9558684
272.2241023
281.0835118
298.3711193
292.7256977
311.0454655
316.8584243
299.9561346
311.1054469
296.8596832
300.7287468
289.6396729
294.6175699
305.2324766
303.9920117
296.3033978
308.3681841
303.7417541
303.3224527
321.6094493
330.59496
339.9431526
317.9236321
315.9249162
315.8702485
318.0053849
312.4945808
321.4666531
301.3016232
290.2964632
311.7121616
305.4422025
304.0795323
313.8513021
306.1711747
310.8036089
296.8432632
279.3399314
282.5503793
274.8038382
299.5899366
305.94861
312.0865934
303.2668874
291.418474
302.3476774
306.141723
303.6427916
294.9579314
309.2524419
296.738062
300.0156938
287.8331358
285.2797428
291.3045361
281.833695
298.7810056
296.1230201
284.328518
294.6764016
299.665931
297.7883864
297.7173186
299.1863532
310.0167963
316.7423238
309.3506115
296.1302847
282.636201
281.0604448
269.2462933
277.3642441
299.1766475
309.0663953
297.580148
292.9712136
287.3899079
297.2818023
307.5087034
281.5130269
291.694487
303.4621475
323.8241355
332.4838812
308.2675889
308.5944786
291.8285801
286.9484809
288.3641278
289.1125865
282.6967345
283.6178619
282.1501263
281.534737
302.4848136
288.4531137
301.0967863
304.4632116
298.093034
294.8586989
292.727336
281.0045787
290.4752346
283.4121776
293.5733137
284.6326376
289.3659212
274.1257863
285.4614402
273.2117186
294.9770165
293.0376921
312.9044297
321.6205108
301.2595933
311.0751825
305.8634774
301.570121
292.1358929
293.2821472
292.7547371
290.4015126
281.6618366
298.7734414
295.2790501
290.5221976
312.1534895
322.4895946
304.2515905
305.4280235
300.5604125
299.6902536
293.7343492
299.5631513
297.6010749
293.1758236
293.7701992
286.4763387
281.2519594
283.7319091
278.8026607
286.1390283
291.490186
292.0709254
288.8650274
305.991804
315.4205324
303.9505996
308.337771
301.4387993
292.9439463
296.8676656
301.9272173
304.4770792
289.5005525
293.137432
299.969682
314.5864529
325.0424945
327.6816101
305.8534584
303.0981918
304.2951497
309.2289121
294.0915298
296.5518224
278.9252589
283.2876489
284.2287521
286.7833448
303.7606563
295.0542676
287.7901394
295.6406546
301.8928568
309.7104167
302.9139105
299.6048456
302.5157928
308.9360889
309.5203943
314.5130891
313.8352385
300.7504198
301.9831302
287.7302917
289.327377
287.5741273
300.5693039
306.3058599
308.3199239
322.9100117
328.7750348
324.2385844
308.8104589
318.2822549
301.5614918
293.2337136
294.0626633
290.2672324
283.5502596
292.0895335
286.8396927
298.8748659
307.0416712
303.6004443
290.5092393
299.112672
293.172893
292.1366183
297.7431871
302.2101684
301.8906601
306.6553226
297.937555
306.1386281
298.0521224
281.9748675
273.088453
284.9577332
310.0424481
305.4021207
318.6255613
318.6281778
308.8720398
301.8480638
315.4712576
297.5376451
290.0571148
291.6645329
288.5964533
290.459003
291.1210592
293.662687
290.6973114
279.4131067
285.6940737
304.0164031
300.8634343
299.0033146
291.787074
293.5532549
299.2989423
287.048463
293.5583479
303.591304
292.4876442
285.9452848
299.5234737
294.6087685
316.7182961
305.9703953
303.9645709
300.1312036
292.5835512
298.0032148
296.1895936
276.3653425
268.4950369
271.0206722
282.7667333
300.402115
310.1959066
317.1976655
303.9816612
300.1362963
311.2660479
323.0837389
320.7154214
323.3654337
298.3621439
288.9055047
296.2841827
301.811491
299.4005412
299.8845696
308.8190166
321.606552
313.7509791
300.2322206
302.1153669
309.9756539
284.9879666
298.4416977
313.7803742
308.3562471
297.0844885
300.3399611
312.0730687
303.7356299
302.6629089
294.4636692
301.2810851
284.092598
287.4858467
279.76062
298.6099782
309.2466687
305.0760333
294.8707816
283.109327
271.361581
282.7804135
297.4677776
275.9003615
278.3024868
291.4845787
288.6757655
295.2367784
308.4216996
294.0634639
292.3508399
283.6792514
299.9914527
315.2269208
308.9796777
313.9849572
308.156756
292.3800995
300.4429171
293.5458228
299.678722
301.3409444
291.7514463
301.9240003
292.4511154
283.2203052
279.9201517
288.6755968
289.1819174
297.7131335
301.6486163
293.9852666
290.2723445
291.5136271
313.9999167
299.1247863
292.899316
299.5862319
306.1039726
307.855385
306.7678031
305.3485858
308.9901985
295.8333562
298.1376347
291.8598744
285.0244009
276.624457
284.7504394
288.9035674
286.5652817
306.701539
300.5218961
303.8467303
284.7142945
295.3681249
304.1138567
300.3030076
301.4430154
298.2327961
309.7862692
308.5231351
322.7194443
315.1087589
298.2043502
294.3899928
315.2714668
323.1671904
294.697359
294.9391992
283.9308041
284.6193599
292.9162395
303.3362011
307.4046723
299.6780181
284.3727423
288.7663761
292.133079
289.6665782
304.8724053
292.3621432
298.1232367
295.8872282
313.3840328
310.7962146
293.9556448
292.4543773
291.3864245
296.0510311
305.7708437
288.829032
304.160462
292.939083
275.7319205
282.9338632
284.9099142
288.049885
289.5862896
293.339927
294.0815589
286.9783325
283.0439922
285.3220674
291.7980542
300.1475138
294.9798795
286.4423841
299.7966555
296.5814305
296.8449465
297.0450993
282.3219438
292.0129802
308.7234201
308.7277547
313.9327336
296.4933925
287.1942553
273.1276128
292.0624803
289.1246874
281.2878608
288.4591745
287.2207443
292.8486374
306.3250554
305.7135098
290.0775202
301.472299
292.5034409
298.1094702
302.9588036
290.4976603
293.7502046
295.0683127
299.0181229
284.1675964
291.7279617
292.1034721
294.5019852
282.7890516
281.7281499
291.1225344
295.4527019
286.4178616
285.4555335
279.8073518
293.9899811
295.0212797
309.0855635
298.7409548
297.190605
291.1357494
292.8707044
290.5498827
289.887882
278.0070325
279.2299012
281.1532747
282.6502487
274.7887911
292.968426
312.8255696
309.3270295
306.3545014
302.0443541
304.7683236
298.8319086
304.0262965
300.8720508
283.3296521
283.7860288
301.0816519
301.5373121
289.607184
278.3724559
284.7170661
291.1825299
307.2120503
298.3990261
291.0315621
291.4713282
287.9534032
288.7964931
300.1710238
295.3418445
302.6180633
303.818075
312.4309807
303.6696622
281.0413494
291.1358563
289.7567385
282.6478105
293.2613643
295.1964561
292.2336475
294.3757125
301.2206278
306.131517
309.9404196
305.9438827
304.6833177
305.2086958
317.5361217
327.4310154
323.915119
314.0360627
302.7729141
287.4433168
306.1251764
314.0921476
307.7881545
309.7549632
300.8059278
297.1270107
294.8732022
296.6358842
291.1727691
294.3833811
294.1368212
304.8779015
294.4466627
307.4064156
311.2275168
296.1567231
299.1418536
320.8677552
308.252212
301.3915309
301.8923156
294.3245114
300.7076335
287.4488832
296.2709544
297.3126709
302.8990339
294.8179917
298.9758949
297.3036493
285.0223257
290.9032721
300.75544
286.8260684
294.197429
298.3087437
304.0297454
308.6487152
327.3934957
323.259425
319.4513191
303.7225871
288.4344953
281.3811908
293.3100455
298.6706967
294.0039502
301.7863882
291.92595
291.6280573
287.4216192
282.7634619
301.4388267
292.4580848
293.4454302
300.2210405
299.0761415
300.416234
284.159683
285.9268102
283.2753117
306.8187564
312.4217132
317.6129764
315.9189809
315.3103353
317.1257031
306.148376
316.5810538
304.0971533
310.5860646
312.5303934
293.6386577
299.2411577
310.0906272
298.6293856
299.0943115
298.5206402
300.6312544
308.8681383
297.9380532
302.9186155
312.2201287
302.5993065
286.8940129
291.7602419
302.8831847
313.0660335
303.929049
306.1424673
309.3212129
298.6832571
299.0553621
310.0378704
301.3702306
314.9685266
304.7000621
293.2229225
313.4272425
300.9605195
303.2658795
317.6587178
329.8898281
329.5579111
313.6659108
304.371142
298.3841361
306.7844358
302.3924903
310.0018311
307.6024791
309.3622851
295.5442635
316.774592
299.1133791
286.7941147
288.1530503
306.3264522
296.4793069
328.4819091
313.2934191
310.087394
307.221189
311.0168757
314.0139072
313.8882067
308.2668391
302.6109341
305.6159261
293.6798504
287.2845323
273.0624977
286.36263
267.9593738
272.5863084
280.4086257
305.7386068
309.3673984
307.0518148
305.8101382
298.3019179
314.638836
310.1005537
306.2626301
319.0065378
300.9653904
291.7973077
290.6745995
290.58771
299.2150092
306.0178316
317.5194355
300.5659708
290.3567973
291.8890382
284.4531075
294.165494
306.1128902
287.5122152
290.7915173
293.6209719
296.6799105
289.4666497
286.551844
288.953223
301.8227065
302.9282675
287.8500366
310.5791216
315.5862733
309.1000596
302.7733981
311.1462801
325.3244562
304.6558766
307.5229324
309.0415964
295.6037261
304.3647907
301.3742363
291.3022991
284.6933378
283.2010973
302.489576
299.304901
300.8161836
290.7009257
312.3026599
318.5272482
287.6940507
283.3956561
270.1279603
259.932777
274.9324364
291.8332232
296.6840453
305.7783222
311.3675434
284.4311159
295.4839184
304.7945971
311.6305938
306.6906223
306.2891443
306.7166332
296.2460524
289.7560232
298.7253829
300.9138072
295.4689699
289.8838591
301.2809958
298.0365454
304.5984767
296.8577996
306.4084022
307.6293302
309.5112004
296.699795
295.5910997
287.704133
297.3193593
288.6928759
293.2968073
289.7028652
294.6791265
296.0156012
303.7079483
294.6969223
285.8690411
291.3406981
280.0131694
275.3781428
291.3574283
293.3729067
278.266481
278.5898708
288.7954035
314.3173186
308.8415989
303.4633848
289.622727
286.0020653
289.1324548
292.7616457
290.8527374
306.9558181
305.9065559
305.0727651
310.8194423
311.4686093
309.3431087
291.183553
282.6444892
285.8397447
298.5296881
299.5675114
317.1037682
287.1688312
304.8606587
304.2097325
292.1884671
285.9977061
275.7986057
281.3750498
290.7147428
281.4286991
289.5567736
301.7262705
297.9374626
288.6770949
298.0168453
303.2896432
306.4589596
306.9210556
302.8166818
300.273516
297.4505635
296.401313
291.3620023
306.2542066
311.6346449
290.6989762
281.117275
284.0850585
281.9220044
294.479415
297.6478505
287.2119428
292.7959311
291.2677646
291.7255631
294.7568707
312.4169072
312.992054
301.9578093
296.2384038
288.768762
304.7905683
296.4965851
318.6626083
318.7287706
317.4053394
307.3297846
303.4334629
289.8979084
302.1807954
296.1649883
296.619771
291.0314365
301.8181836
316.9713966
309.1896837
289.930763
284.4393161
287.9743591
306.4255295
307.5795063
295.6102242
302.2309606
297.4108711
296.220799
297.1872864
285.0524272
272.166999
291.7891026
297.3790224
300.0722847
299.2587128
295.6839455
299.8727577
298.2499609
299.4460021
297.7802969
300.0457396
324.876028
313.4913408
296.6556712
297.3315136
304.0759375
304.5353515
295.1926701
293.4186126
301.6500386
287.4529411
287.3355412
288.4661429
296.8283121
285.2241968
289.3048703
307.5663267
291.8944814
278.7149124
286.1856004
294.0338264
294.8116189
305.3260416
309.3299144
303.6240968
293.1628251
290.3111443
290.5476048
297.9165238
300.1562068
305.421433
298.1310053
296.0655553
295.7454487
294.319634
287.0369845
284.3728566
286.7567075
291.5556466
280.6539636
284.8554797
287.3157538
296.8546734
312.0442638
296.9544082
307.5300924
323.5416655
308.1791909
309.0584614
329.1474936
313.609933
299.3718917
311.2020682
322.7546415
319.627499
326.2652364
310.244915
296.7068873
290.0611228
294.3656239
298.1510429
308.5346425
295.0944475
293.7530427
320.2738456
317.3625161
317.758929
308.032852
320.6944712
323.4668543
340.3306594
331.5609701
306.6548011
302.1141395
297.0478853
281.4398775
295.6537986
284.1434325
306.3418338
297.1827013
304.8469337
318.3334163
324.4407406
326.1066515
315.2050386
324.8181097
343.2761668
319.5482168
316.3008543
304.8357176
298.7915551
280.6543988
288.7206752
288.8758616
295.9721638
293.1418435
305.6624274
312.6961029
310.6609472
318.3492287
324.5150444
319.9189269
322.7501899
317.991002
297.3882844
290.5409845
300.8695468
308.0729456
304.9479989
294.7769806
298.0568024
301.4851071
306.9482582
308.0054622
319.0992413
312.8592417
301.6104267
294.3245877
290.2214805
291.2903629
278.5198796
274.2663323
271.7969971
276.6762748
291.3744375
290.2207656
293.8109166
303.9690413
309.1544083
291.5015257
284.6462676
290.3087669
307.3997904
316.7821988
306.2121159
326.2829178
309.8104619
308.4480171
303.9760657
292.0220165
296.0930666
313.0007922
306.0768382
303.3546563
297.9809237
305.2609428
298.7492021
301.9856608
301.9583582
305.5423278
310.2914403
301.0686757
292.6176536
306.8536306
301.3319058
295.3528257
305.558934
308.1411743
316.8838293
307.2115187
302.8470955
284.3864978
282.8798606
281.8983358
308.2072881
306.0773885
307.9528257
299.670813
295.3106775
308.7062353
295.5734562
306.0946606
303.0500911
280.6434185
295.2439441
303.0396943
303.4377682
312.5103943
327.7342546
315.9407089
297.9832288
299.8501026
306.9896006
303.0040342
321.2763378
314.5035096
320.9096582
333.358821
323.4654176
301.8875159
310.0159784
329.2537059
334.4710587
336.4076978
314.3849122
293.7916896
302.7966139
300.8512932
304.1790074
307.3112621
317.7513301
298.4771381
303.749488
307.3932028
310.7299127
307.6668887
320.7421864
311.4715639
316.5059623
307.5548048
316.1600443
307.471727
295.8659096
318.4349728
312.3162007
299.9498334
297.1155276
307.208578
297.5269484
284.6683805
294.594887
296.0137031
307.9669936
308.4372007
299.8767617
296.4790193
292.3100268
306.2819594
306.7993796
310.3172515
303.8782294
311.3541212
298.6285524
298.6621818
305.1537987
312.210503
315.047737
300.1488423
289.7494928
294.1376578
305.7440386
293.8322716
297.3387561
299.0256321
281.2840859
281.5908075
281.3661551
299.0165014
313.5447241
301.6966489
310.7409346
309.427345
327.5824325
311.5523048
287.0521792
294.4557808
286.3031543
301.6296487
306.827087
307.0531487
302.3248412
293.2818074
307.0623395
293.5137965
294.3221435
301.5577229
295.4410042
304.5666926
314.010076
323.8376594
314.4692763
318.5746445
302.6972215
311.7163644
308.6753957
300.986581
312.6615565
313.0348493
317.0374365
307.5642131
298.94578
305.8314327
295.0741618
281.09554
315.31356
289.0657935
282.5572175
274.3198657
283.609402
300.0300117
294.8654472
294.6099447
283.3966282
288.2869019
297.7056598
301.7884559
303.7942696
304.3852951
296.0292189
305.9446134
308.9556166
302.6797772
320.8418708
322.0914615
304.7104148
321.0978377
325.1535096
301.8332827
289.1342745
304.0924956
331.2551621
325.4817328
311.8057918
306.2389128
308.5037487
303.2827545
318.2553447
318.6724348
323.1115433
304.8550093
299.1957286
302.7298309
303.3347091
305.018398
322.6391004
309.767716
300.8886841
306.7043129
296.196414
306.3895946
319.2661579
307.2349369
303.600847
298.7842813
305.5449951
297.2591184
298.3264206
308.2874163
316.74099
319.2494259
308.7692034
304.9849434
304.0127323
303.9070013
306.1777427
306.5343084
300.2844661
304.9383762
308.6722721
319.4957997
318.6644607
304.2184954
297.6218365
304.0510161
307.6914217
299.7941277
310.0964869
310.5699467
293.1613511
275.9454795
280.3785949
314.4146065
302.4819529
306.0317293
300.4498418
292.0220331
301.5341392
300.4725496
305.8557917
282.4762206
282.0437079
294.9807568
303.4009177
307.9083217
296.6170569
287.3661651
286.8341009
293.891203
311.8363389
313.5734073
308.1250863
286.7511878
283.944943
290.6341043
301.8044975
301.115389
278.6998006
283.3995675
287.3346133
305.431769
300.0902974
309.841504
309.2988349
301.501101
288.7402962
306.9571414
295.2688034
300.3136251
298.7198823
302.0667471
304.2016753
299.8612362
308.9615506
314.5858732
293.5992369
287.2274995
290.1128924
297.7653304
286.4878856
285.2760589
278.1103523
294.9034758
304.227333
293.6404765
291.5483674
299.6290648
312.1496414
328.7459343
307.0149635
295.9681812
287.4214566
295.1399342
300.7130484
288.7710987
278.8017822
268.7181729
276.9269757
279.2058603
288.488125
295.4279945
290.5363138
304.7511121
307.6135946
302.6733899
305.5790143
305.4631285
302.0767644
285.6331134
283.2713672
286.3632213
284.7048471
264.7761455
272.8677435
276.1728793
296.8529269
310.3446959
306.7569287
284.6619517
283.3929386
292.6280094
300.702932
291.6724017
308.1675443
303.8118291
304.295275
306.4728393
304.721752
289.232115
289.7223522
290.1499993
289.7682073
294.3853868
285.4937877
303.0700183
300.2254657
289.6299817
299.4565895
288.0420539
288.1122226
312.9954983
306.8584838
311.955593
313.921874
303.5398943
292.7408279
294.0151976
279.3595871
275.0429492
279.5904127
292.7210793
295.3126068
312.8247875
302.7775944
309.5649597
286.3139025
282.647778
295.2222337
295.0293489
312.8150213
307.1697467
304.5544043
283.0037052
276.2962227
284.3409568
299.5544006
298.1658983
314.1314037
320.9786079
306.3073962
317.0622649
308.844239
305.5224552
305.3824736
302.3658141
276.8233674
287.4989202
295.3097837
299.7502517
305.7108674
313.8067355
316.0946698
299.9144731
283.3240532
284.728295
287.6988464
312.1730994
297.5061519
306.764024
311.1235583
297.8843762
313.4522174
298.5024691
282.5594336
273.9471188
295.5214469
290.981075
288.7540518
283.9608728
287.1186672
292.3266415
303.577821
301.3687065
307.4873343
307.373834
308.1185032
321.8994918
317.5084527
303.4608397
303.116847
294.5244072
304.8791114
314.6639917
309.6609755
320.2297303
301.9519622
304.6468587
307.7930954
298.7993486
295.457309
284.6661728
293.0167202
299.9226129
282.6265504
297.6855627
322.7033533
310.5135927
298.0706867
306.4497696
310.7241323
296.1663262
287.5547507
291.4002865
289.3794609
291.2027312
314.6515374
295.7950544
296.2888569
289.3222801
302.8119109
309.0764824
303.9742981
298.8034567
298.1392574
304.340652
313.1828718
313.0161761
318.9901634
302.7349764
296.8799634
273.322198
276.9730128
282.3361463
292.9366341
303.304842
292.7204544
302.1789882
303.6645943
291.8077049
278.3978303
284.6769947
289.565538
294.2584297
305.0221067
307.1880923
300.0644354
312.6861387
313.7976447
318.6039472
315.7089216
311.1613158
313.743554
301.6791584
297.0654736
305.6022953
286.1954813
298.8457801
308.8638915
316.5954684
306.1501164
309.091737
310.4155175
318.040778
317.0048134
309.2726404
316.5020949
317.7882676
313.3280301
315.9012026
317.2290241
327.1834006
305.5705103
301.6184567
300.2554853
298.0069821
295.457703
290.6246172
293.9933691
298.9510516
305.6765502
286.637358
276.9478708
286.0119291
312.9290181
316.737676
298.2095646
295.5882211
284.6872393
295.6039373
297.5785102
289.8053414
304.405738
302.5404624
286.6627369
280.19186
301.5658439
296.6867217
292.986175
294.8912766
304.6362174
322.1323477
321.8039508
316.0129556
312.2199148
313.1427628
321.6876589
311.1465775
297.8906005
288.2140473
285.4306369
303.6393114
308.2029314
307.4679047
320.7061473
309.6207856
316.126833
315.6501881
318.7087863
321.1396271
315.6143886
299.5224011
283.1420492
287.2749543
288.4399571
300.2784582
307.0927949
316.1608443
326.3429592
319.6842309
304.1669391
305.2617756
312.3104414
295.1126224
308.6783729
310.7842894
305.7328406
311.968098
319.0982296
322.4758289
318.3160688
304.9787513
311.5162991
320.7706665
313.7955713
301.4321779
296.0659376
302.1172724
295.0793165
276.5778115
273.7929582
301.8813219
294.9188464
300.2794613
304.0318372
301.183664
277.0721449
281.8602051
276.5106897
268.0550572
305.3328107
308.2843619
301.4078893
289.5624244
281.2799105
275.0126768
278.4073781
289.4726623
285.1609137
297.4608997
292.1757295
289.3471809
320.238526
309.8594743
294.0551023
275.9648616
304.1470096
292.5261538
306.738859
307.656823
292.2149929
300.36281
300.855781
295.5510057
291.0797897
294.6388748
298.3317727
285.1779224
306.0655261
302.2310266
299.8433382
304.7011009
298.736046
305.7324487
311.1173922
307.9554607
287.8876848
286.4455925
282.7943803
280.5501206
287.3848706
297.8229428
326.8904826
320.4057297
314.4499482
310.1707863
309.8099644
295.866052
294.6116585
296.8363224
317.0711482
304.0240368
296.1454976
280.7683256
285.1581151
289.9100343
310.3698635
309.2548589
311.5640077
309.7471425
315.7236204
308.7646477
310.0033211
325.194264
304.3512633
304.5260674
306.8838941
312.566028
293.6832955
278.8166036
283.603847
279.6671115
280.2340436
297.855614
306.420931
309.0245288
289.3297357
292.3532366
298.6694241
304.5371833
304.1517644
283.1542222
283.447229
291.2749821
306.108565
315.4079836
307.1303978
305.9011112
313.3995842
300.8096874
289.8476465
295.1150428
297.6456561
287.32193
289.0163081
288.0101218
266.4046211
274.0015248
296.9171294
303.0556103
297.5879924
294.637659
288.1955064
283.4952301
287.6479994
297.5507661
300.4958913
292.3905445
293.5016424
300.505776
293.5266939
306.3740859
301.0629229
295.1991885
291.5796198
274.5822168
306.6714319
296.2663921
286.3961049
291.7443243
308.837441
300.5275712
302.2927895
304.1535257
300.6720276
299.6213661
295.5151203
298.4742159
304.6173745
306.0612012
302.3073823
308.5353927
301.6410569
312.5162793
312.882087
303.8751431
302.0412219
291.9278322
294.4716886
298.3936903
289.7639403
293.342958
292.8425581
299.228508
285.7848623
292.2375513
296.1272453
288.8602051
281.3851965
285.9965083
297.0599719
312.23101
310.8690144
312.0848831
307.5414253
294.6953316
315.6775682
309.9126743
296.8112616
303.8162937
314.7657752
313.1649155
300.6288732
312.6015467
331.5108099
310.0622667
290.5168575
302.612571
304.6565872
310.4390393
306.738013
310.7851388
327.4074827
324.7730904
312.4810916
309.6095867
287.533191
304.1338635
310.0367403
322.7235276
319.5109226
330.2381619
326.1138035
321.2600687
295.9527943
294.1568371
301.828993
307.262476
314.711016
297.7736319
302.0728132
307.8348568
285.4514019
296.801055
292.4498473
280.9553017
311.7690431
310.0429259
315.015382
300.0983536
309.9893398
294.2726581
288.172225
288.5931467
299.1846888
309.6825157
309.0330023
307.0959488
292.7102051
288.2440696
294.6288413
302.8814486
296.9004174
293.4450866
295.0991694
303.8875816
311.3810647
305.642782
299.2178847
293.898706
293.3747612
305.2086932
319.9306378
318.2789714
301.5443551
294.9173013
292.1276998
297.8801113
301.7411242
300.3056751
286.8176468
287.8142566
286.5021348
290.7048799
290.4373567
297.3562284
281.023839
296.7213475
301.5476371
302.9521805
310.8364243
293.4796052
296.3701294
314.4581707
318.8635089
323.3330725
327.7515023
316.0596895
307.5499834
288.0683003
301.7020985
310.2979857
299.7002209
303.0998264
291.7388862
298.4225538
306.4947288
315.1543759
321.8713653
336.1828791
324.3715555
319.557213
325.580212
322.8113271
324.3070037
322.1937045
307.5524758
302.7533079
300.7211265
308.1967178
311.9996584
311.3898232
308.3341782
305.5047227
316.4891824
308.6077871
306.0704276
304.4511986
296.694284
300.9671039
305.4820346
308.7144221
308.1367908
305.6557074
297.3035629
315.691381
315.1344697
321.8195804
314.1970807
312.3209811
309.2938529
308.3973066
313.248417
327.1521297
319.6295884
312.3686598
307.5889554
300.2587105
310.8080039
309.4031491
307.3647281
295.2602893
294.0591122
306.8105983
298.2583825
299.4931802
298.1403174
294.1658817
302.3044924
322.295779
319.2524885
311.55343
300.0364893
296.7106529
300.8760338
308.1133777
289.8212103
291.1422685
278.8719248
287.5512364
285.4089653
289.2294722
296.8481696
301.5966472
299.1540702
299.2097986
297.934937
289.115003
297.5930401
295.3402176
318.983638
320.3126646
327.243424
324.6286422
320.6828403
306.4686913
289.4161244
291.9573819
297.9494948
282.1178676
288.8192785
288.586615
294.5057938
298.8272659
302.2751586
298.4738528
297.0767185
299.0005929
277.1200667
289.053253
280.4466198
280.8224453
286.5294677
288.2409465
287.9981692
273.8346868
309.5867001
303.7510657
296.9177771
294.3649691
298.0780417
300.0805143
296.9647328
309.4710404
305.4005776
286.2635388
284.0237502
295.8998668
302.4838813
307.5255837
294.8504734
287.6010049
284.1764672
288.9861742
298.0983191
300.6637401
297.2638871
309.3652676
314.8359066
319.3092361
324.9095099
319.6405941
296.9006579
299.2655328
308.3114297
316.1272809
311.1058782
302.3616948
307.9543912
306.120794
309.4338472
311.6717571
311.1481422
295.2990631
290.8939909
290.3059369
310.0877808
288.0061741
297.2283677
291.4832207
282.6499019
286.8258425
301.0478895
314.2283466
304.5935463
304.1202046
298.5457025
313.649436
301.9776567
277.4113969
282.6156687
284.929486
290.3547391
295.229886
294.8302289
304.6983979
309.3227185
323.3823728
301.9338035
299.7968412
286.4922459
281.8744152
295.8345989
306.4325465
306.3977751
299.0320316
305.5923378
290.6904726
292.0406599
309.7762223
302.5327968
294.8066226
299.5888134
279.9435402
286.44815
291.0557076
295.0177723
311.5186748
315.3482068
325.4164124
312.0164763
316.4216941
308.4849643
300.6867293
302.0074332
299.1704105
291.138588
297.242463
312.3074184
314.1164518
311.692852
313.9973127
299.1851219
293.2057875
301.45879
304.0856167
303.7965059
305.1075092
304.1921049
288.1568189
292.3520207
286.9858034
307.9092759
295.8841002
310.9538812
309.7302244
314.654626
296.860922
296.4020788
290.96608
283.1811161
289.3011499
279.1062412
276.8900637
276.8795303
300.7263528
275.1814678
293.0429611
292.8346262
291.443872
290.1606018
287.8819625
286.7666844
289.3181508
287.9833354
310.8971681
297.9907715
298.4381039
287.0014039
312.899562
303.0100833
292.3429814
317.3238004
303.338315
298.3564442
295.4712262
294.6476062
297.8721202
296.3771637
301.9976216
286.0134971
287.1466281
289.5692108
275.7021952
268.2851836
270.3112875
275.2849782
268.4210325
293.9219502
293.0103775
292.0960266
287.8190595
288.7150772
280.1343137
299.8299066
296.9560175
305.8670506
296.1815979
288.2842101
287.3899921
288.2581687
287.4538333
292.6728056
295.1229802
294.6171463
309.3928651
315.6563768
288.9402525
293.1781077
306.3242399
312.2354054
327.381697
322.679809
314.2620615
309.1573072
318.0658496
313.0114154
302.4945475
303.1118561
307.0257684
298.9653721
301.1956107
304.7505094
311.3081827
291.8954082
289.0162454
291.2635629
299.0996283
309.6499612
319.251027
315.5979789
314.3928443
303.5027881
289.4530335
305.5738864
306.3777957
297.2460749
297.6548365
288.5639358
291.208468
307.9511522
311.6119937
321.8398336
313.0857799
318.7753325
318.6545757
317.5204128
316.5140458
319.6693744
300.7095632
299.7381431
293.5282504
271.102342
287.2205464
302.164063
293.8441009
320.2471354
322.7871681
315.9627313
301.027703
288.9078585
291.6686031
291.2483269
307.9393224
296.6162211
284.9533491
283.8621366
289.6742068
300.5083792
298.3552877
295.262107
312.7078633
314.1576676
310.2812441
310.1499694
318.9902668
311.0721547
307.1106655
311.7223694
320.3053723
321.5512734
315.9865018
315.9367592
309.0454204
312.2669153
304.6549901
311.9650961
312.7569582
297.1705516
302.5146684
314.1629358
306.652959
294.3767679
301.3057203
298.0885706
307.4790004
306.9418221
304.1191562
298.1676438
292.0996047
296.8535105
298.4637829
301.4903845
314.4293814
317.6865378
306.0895299
296.9136406
307.920037
312.2311646
297.5316061
294.4520255
289.45093
294.6784595
316.7574303
316.2742559
327.5319017
312.4192343
303.2680994
295.8524666
311.4396149
316.1740548
313.5049132
298.8886677
297.5273109
294.8827905
307.7890717
304.6320612
311.1838804
330.1300497
324.5541367
312.5506523
301.303776
287.2014304
286.9578113
291.6177842
302.1236319
280.7213499
272.0339408
283.2658126
286.1426062
286.9038946
293.0773505
298.4428642
287.2877937
283.0161039
294.0292246