/*--------------------------------*- C++ -*----------------------------------*\
| =========                 |                                                 |
| \\      /  F ield         | OpenFOAM: The Open Source CFD Toolbox           |
|  \\    /   O peration     | Version:  2.4.0-MNF                             |
|   \\  /    A nd           | Web:      www.OpenFOAM.org                      |
|    \\/     M anipulation  |                                                 |
\*---------------------------------------------------------------------------*/
FoamFile
{
    version     2.0;
    format      ascii;
    class       volScalarField;
    location    "0.0008";
    object      translationalT_mixture;
}
// * * * * * * * * * * * * * * * * * * * * * * * * * * * * * * * * * * * * * //

dimensions      [0 0 0 1 0 0 0];

internalField   nonuniform List<scalar> 
5120
(
291.6353145
303.5746871
291.0724591
289.9222143
296.5954782
311.2916677
311.7391689
299.4677665
296.4312784
303.283671
312.8766131
310.0910695
302.1750597
283.0405929
288.3109043
293.6030777
286.7344236
297.8858826
291.1351166
288.14245
291.9497232
296.7211152
309.2111955
312.1511084
310.8191981
308.9400167
298.9810422
305.0852697
309.4620823
297.8300999
291.2402995
293.1828952
294.6525348
303.4566846
294.8492337
306.3295136
287.8019816
283.8963039
297.7882889
296.4710519
284.8015272
298.2234959
293.2355864
273.5948697
275.8026394
283.2831926
296.7300925
291.6448888
290.3416796
296.8913771
295.0718103
296.8624212
298.474702
305.562887
313.5153535
303.9013463
298.8549279
308.4318556
308.0419214
290.2351263
291.5393756
287.0024884
289.585248
301.8676561
310.2018863
310.437552
307.6123921
309.7331548
308.0468326
297.0174118
308.4511684
308.2711798
298.7506746
310.0430027
307.4146546
303.1126296
310.9750799
306.993973
301.2774344
285.5962565
305.2264733
315.7933089
307.6753036
292.8269306
300.1839665
304.3551374
310.8300114
295.8462144
294.2278763
309.384918
299.5088297
301.0573242
300.6820246
286.9114145
283.510814
294.8651514
303.0038926
307.0128464
310.1327789
310.5947447
303.1179652
296.865854
319.3898145
307.9140028
304.4962155
296.133767
299.5765034
300.6360841
306.6811431
296.4056679
302.0028084
310.2872809
298.0739193
301.8965631
306.294116
314.4517419
303.5258033
304.9770206
295.4058206
298.8891188
306.4350682
302.9237611
287.9977624
287.6381172
294.4240563
303.2363509
287.673745
298.3977589
300.7559996
297.665331
285.1959064
275.4203422
272.6192876
280.863776
302.7005098
312.7452552
307.4166266
300.9514175
292.914729
301.3206754
281.5411537
269.7380861
285.4557066
290.5654748
295.8859667
292.0141068
310.2924193
295.1411187
285.0870801
288.3636962
288.3060936
287.6292671
303.4045378
309.9272865
295.2629737
290.911817
295.5579605
283.8268888
300.9354817
295.4031267
296.0136799
300.4101121
295.1004265
276.8827085
281.9251084
282.5268815
284.4514046
299.1175292
303.8840581
302.7654447
290.9204237
302.4069622
296.392451
298.5139535
304.7200025
292.740237
292.2379062
293.1365248
286.0371158
294.2080162
296.6692687
286.529327
285.3022927
280.4974193
285.967243
292.8392272
294.4235599
290.8891123
297.5863656
299.1793617
301.5667437
289.6646386
287.2379775
287.6115826
287.3028884
292.0492576
291.2488109
290.0832409
297.9157379
301.2936687
305.993642
310.7069434
300.2477009
286.8916181
282.6575645
283.3286425
285.5934061
299.5957833
289.1525517
293.3777302
310.0452525
315.4963339
306.5148263
298.5124042
300.2552792
313.2448222
309.4390075
313.1603936
304.1023143
302.8851833
298.2539615
311.0482582
310.8206057
310.4730217
299.326356
303.2986276
292.9616067
299.41652
306.1268703
296.7445781
284.1085422
277.9545337
282.5998003
299.4127073
300.6840491
310.4892229
317.3001339
303.4239903
318.1001984
299.1898691
291.0741895
284.0586156
284.811296
296.2845305
290.785537
284.1458087
300.6370937
303.1494806
308.6141788
326.1040864
332.6555118
335.958704
318.0417155
322.4031414
317.4179559
317.9737274
318.0940194
325.1079227
301.7424213
286.5522359
303.0115639
296.8775339
300.8758049
303.796972
299.9808125
311.711605
301.6878033
283.8676348
289.2136303
280.9504319
303.1031672
311.0315565
315.6437021
304.0600676
293.2350216
305.7935096
311.5907666
312.0645937
295.3713451
304.4630589
301.589517
303.6200813
299.0825424
298.0118286
303.084141
288.9713748
298.3334434
294.1122888
287.546343
298.1617899
307.7907994
300.4845255
296.0393625
306.9248953
316.6636122
316.146577
312.7447542
304.3536021
292.2525968
292.1998889
274.1284826
273.4813796
290.5833381
303.7051321
291.3419037
285.8513825
286.7057173
298.180604
299.8049785
281.4150553
282.8901493
297.620504
318.4491201
322.6176434
309.0077267
301.0120288
287.1573463
282.6470526
293.9690383
290.6803652
285.3366154
286.619785
283.9051587
281.1575494
301.440186
292.7291456
297.6587603
301.078682
301.4005137
297.3133502
291.2351117
278.2992051
284.033595
281.6652311
293.1667746
285.7464933
288.1158701
279.0179922
291.351172
287.0195322
296.5306981
296.6011401
311.4601987
315.8955358
298.0429512
310.6243191
307.549063
305.6509143
291.1147396
294.1220121
298.2961351
289.9875349
287.2981441
298.8274079
297.974747
293.0546111
304.0086774
313.1580361
296.8801
298.4733061
301.3457208
300.609055
290.5577511
303.9258225
303.4706814
299.073469
298.6895235
291.4596688
282.2637666
280.518043
281.957558
292.239162
297.2181119
294.0575673
288.2627107
302.8980674
307.2088683
299.7415354
308.4089884
305.8139567
295.12043
302.2259326
303.3429223
302.3471401
292.8090721
299.9354699
304.7556697
318.7578615
329.471209
327.1136695
305.4882063
303.146878
306.5091086
310.734887
297.1885474
298.0581982
281.0962379
287.0949886
286.4531023
291.5809443
303.7925015
300.3207915
300.1680293
300.9779166
300.7385937
312.0023335
306.9003726
301.8409053
301.6324926
309.7944022
311.6727026
316.213372
313.5645534
296.5060071
301.3663407
302.5444436
298.6026077
292.573042
299.7020634
304.551062
300.0584876
312.5196179
318.1875527
326.5376317
312.9339351
312.0469835
303.5839966
295.1815983
296.1225676
290.3982622
280.7092203
290.2342402
284.7930178
297.8419586
303.5079924
300.3303078
292.3394243
297.1055473
295.7158935
292.2535168
292.0157337
295.528768
293.9808563
297.939351
290.7225682
302.5643802
294.9230851
286.4601744
279.043417
288.50932
313.6767883
309.8120232
321.681488
317.4084024
302.2103008
298.9471715
312.3927439
299.4718033
296.889569
289.8684999
286.438744
290.6380772
290.3180658
292.1004653
292.3431766
285.861979
287.4402218
305.3155107
298.1511325
299.2861434
293.2422515
290.5084446
294.3750169
278.9552184
287.8908596
297.5990188
288.1553634
288.5555684
296.747775
293.4895995
315.9719834
303.6274718
299.7448863
300.5596641
301.1085846
306.0996108
299.0573679
277.004654
274.7781196
274.565549
278.6402797
291.5425401
298.1154674
305.1516458
297.8808774
294.5715384
306.3292155
316.4701657
317.6645723
325.6688727
299.5413223
295.271958
297.3318102
301.1945582
300.3871233
303.0292293
313.0635706
322.6823852
313.6383867
298.4456564
291.4200167
297.6726675
279.8372403
288.7422007
302.9471945
302.1561973
295.8540857
304.0363091
309.6438012
304.9994819
301.819829
293.984951
302.1727361
288.1595282
291.5078112
283.0247557
292.1736833
300.8591954
297.390631
294.1392429
288.4534034
281.2355174
293.7262377
296.1785647
281.5914786
282.4486438
297.4640067
290.566063
300.5846632
311.8470054
289.2493214
293.2793115
291.8912871
308.4355304
315.9802005
311.1539425
314.1904285
303.8196462
294.4480874
297.2642437
288.933052
296.2200361
295.168379
290.988078
296.6951516
291.2575348
281.979796
278.1254057
280.9825109
279.6218566
307.7783188
314.7386766
300.3328133
293.2490325
298.542571
316.9131102
309.6601272
302.8905221
306.4002659
306.7203812
309.5622176
306.2723995
304.1561871
303.6476057
296.9968397
298.6703986
289.0536068
290.3511315
287.8380069
298.863047
285.7539003
282.0481867
299.2658388
292.4695856
303.1640756
284.5224628
291.5710561
302.4939362
296.7994081
296.800798
291.0082414
306.4995841
311.1852003
317.5096485
310.751232
298.0610992
292.5883158
308.5465226
314.8169939
289.8419263
296.5126042
283.9935755
284.5021052
286.3295681
298.5013274
308.5235972
302.8605956
291.3973671
297.4583124
298.9366385
300.3209124
310.2724725
301.2370963
298.280198
297.9946314
312.3943824
309.749482
294.4282772
295.3989372
294.2131678
293.852259
305.0569383
292.767366
298.6871267
283.8943076
271.6223717
279.8104089
282.6266516
282.6223596
284.8901988
292.0263622
291.1260375
289.8988562
287.7542034
288.7286076
293.1605595
301.9231397
299.247528
295.6916911
300.6813707
294.0961886
293.377891
296.2056614
288.9157138
293.121754
305.7496657
308.8762506
306.8177534
300.1064576
297.6786725
284.0347501
298.7628545
300.3280509
291.2650712
290.4332794
287.6666733
287.8504258
299.902511
298.2660199
286.2005519
304.260698
291.4831876
297.1412059
299.1807789
287.7910197
291.8089096
293.0957371
292.6557515
275.7952747
282.4705824
285.3432687
299.1429718
289.7301803
290.6630192
290.5589432
291.093673
279.8680496
285.8161686
278.6840206
292.3103048
297.1715204
303.2543149
298.0377402
295.541171
297.3226252
298.3436884
293.6077177
296.1714051
287.7069417
283.2560562
281.4774446
285.9056607
280.3776209
296.9391538
313.0512626
312.8343174
315.5043709
311.2549959
304.4348272
301.7477875
315.2431576
304.0963779
286.2719665
294.7195157
303.6667669
304.3170043
296.575643
288.5406519
290.8189894
294.0245658
302.2346069
295.8277717
295.4655019
291.6279976
290.4355398
290.902236
294.6621368
294.3056926
301.5492361
312.2276241
315.6723934
312.0676197
296.5451923
298.5250709
298.5186021
298.7359256
302.3685522
295.7415934
291.333397
290.8065303
301.3362873
307.912998
305.688267
310.3966033
304.5914404
302.1181707
312.8190824
326.1659315
322.9438192
320.999449
300.2385313
291.3758794
309.4060425
314.9349277
315.1507379
308.7952491
300.5886847
297.0711696
297.1221781
300.2704369
299.9446532
295.9724133
289.978534
298.5868084
296.1037432
303.4185269
298.2622955
290.8065676
290.2866911
308.1146282
307.9691492
301.8533867
300.4717471
292.4110338
295.4413983
287.0188896
293.6336635
290.3149686
299.0033972
293.7744247
289.9125873
289.1570902
282.8387001
292.0091474
297.6535458
289.8623606
293.3694883
297.5385177
299.3747248
308.978796
322.213033
319.2683123
314.7234495
300.3488356
294.4803018
290.4913822
299.5708423
300.2100822
294.1045941
303.1297692
291.0016392
295.1955746
293.6525693
297.7763458
315.8241773
301.6581983
296.4796792
298.662515
297.5575274
299.2970909
288.0100337
300.8646208
298.5830068
316.4523072
316.053944
315.8947594
313.0064798
309.794685
309.8593088
303.4430047
300.5450764
288.8162217
300.4287023
298.4272782
288.4805871
291.7762331
304.8958415
295.7993209
301.5210117
300.7761464
298.7378364
302.7489583
295.9551217
305.1455866
315.0492991
306.1169484
292.4487431
290.9297706
303.2508379
310.1964053
297.2475309
301.4339971
304.4462714
293.3214777
294.1049253
306.5107467
298.9697919
308.7372641
296.3200267
288.6166809
314.3926857
301.5774289
298.3610422
311.8985379
327.2659507
326.2768823
314.0207521
311.0301508
300.537257
305.7061023
302.0356655
307.5786305
308.123366
307.8971145
299.3934
315.9041134
303.2884106
290.6173424
298.3479461
310.2100453
293.697831
325.9852926
319.4804164
314.8979791
307.4318862
312.4599838
309.9978869
314.7245419
310.6954217
310.522215
312.8239108
299.8818888
295.2303155
279.0319056
288.0837426
271.9278445
276.5646176
286.584048
303.6936379
306.58929
307.8485046
313.0019061
313.3139946
321.8894134
315.6980404
308.724728
314.6838608
300.4790205
294.8523696
293.0167462
290.9207881
296.4061013
305.7567228
314.3872686
302.1343556
295.9881567
298.8464825
286.2155663
292.5041502
303.5530803
295.265221
296.4385392
294.3702167
301.7379732
283.5671343
285.1164356
286.6752495
294.6837422
296.1516534
283.536767
298.3896083
306.0168471
308.2025131
306.4808453
309.8224953
315.993388
298.5648706
302.8481092
311.0015732
300.8359989
310.7017097
299.9742801
291.7079734
289.6661602
299.4871138
305.7787418
301.3997076
304.8965211
292.2725363
305.5587332
312.9891965
291.7312165
291.3295311
281.1013285
273.9233761
281.7223176
298.4554985
305.4421043
313.7830935
323.5517998
285.7560224
293.2685673
296.6994443
304.5634312
296.4313055
302.3744199
302.0001053
297.5802007
293.265073
299.0844207
302.1946079
301.0695326
290.3063481
300.0993219
300.2910346
307.1681253
299.3493583
303.2547555
299.4653648
304.2774473
293.5206539
287.8759416
286.7564097
293.6274216
290.8859632
297.8024203
291.8323816
295.5266326
296.9947713
298.5268431
297.4899367
287.8728092
290.2239191
282.4485533
284.9942199
296.9236221
299.010501
280.2273191
280.7195707
288.1358909
307.6557861
301.9113323
292.1158731
281.6840664
283.876384
285.9939266
290.6605948
291.206397
310.9553252
313.3870085
307.6445341
314.516971
314.4062183
306.0852041
287.1347565
282.4972759
293.7194608
299.2979201
305.5624197
312.6424657
288.1632539
302.316658
298.7598499
283.9632663
282.097625
276.3068219
282.8930058
289.053786
287.0446744
296.384466
313.2441217
301.6580895
292.3983925
304.2966324
318.8240644
304.1975891
299.761452
295.363003
292.1342884
298.3968791
295.4158601
296.1255475
311.5681863
312.5475485
294.4499723
292.8685613
291.9500003
293.6074137
302.9577842
300.8557372
288.4551912
300.1615739
295.3105278
293.6156436
291.4040558
308.926274
310.3330155
298.5857505
296.8888452
285.2034972
312.6237906
305.6270814
317.1684006
315.9142254
313.3837524
305.4776738
300.2987754
297.0551829
304.4735116
302.6394477
303.9573488
290.5220985
296.8277694
302.4265881
297.9796342
286.2747214
291.2200964
298.2731604
314.3563114
313.7393875
302.4428098
301.5486409
298.8191792
302.2948376
298.0150286
290.2468917
279.7996336
296.4465575
295.8835168
304.4676949
304.7263162
297.2256487
300.8496228
299.4518744
302.1741299
294.7031309
290.5099585
312.1912807
308.602669
299.119199
290.8891903
298.3646554
298.9231791
297.0892161
301.176061
303.3685918
287.9737778
292.3829664
292.250153
300.618547
289.4687457
297.294726
305.7280954
293.3277289
283.1352062
288.7131507
292.696799
293.5386985
296.8978774
304.6160828
301.6118315
291.0070189
296.0368229
293.9319236
298.5090499
298.6374535
300.6749316
298.3132186
292.2978444
289.5725143
293.6995449
293.8627354
302.5561764
299.2256528
295.8447544
284.7176905
291.1447583
289.5261181
304.1451428
313.2744381
299.830806
310.4725704
319.8121796
308.3868166
311.0839501
318.459846
304.5317238
293.8238277
301.6553165
314.0059164
316.4663525
322.2478002
309.3848179
295.2996783
290.5022665
298.8963035
299.6776953
307.5882346
294.0602857
291.1046216
312.647054
310.9070144
306.7825147
300.8508498
310.7116828
313.5928825
323.8995317
317.966357
298.5628373
302.4045452
302.61217
294.4651887
300.3841045
287.9257605
306.5589007
299.976059
305.005234
313.8236795
316.639375
323.1695283
321.4417607
324.9288795
337.5834249
317.5722901
312.202742
301.9909327
294.3418552
284.3592264
300.7777186
299.1909985
302.6527693
302.907008
313.2105746
312.9858845
311.0921503
313.7740935
313.3960717
321.0678963
322.9388075
324.5882441
300.1748736
294.4272617
298.1177255
304.4646137
305.0433084
294.087495
298.3543048
294.03471
303.7995101
309.5985459
315.8501325
304.1885595
298.224988
290.8840443
286.8293743
292.2042821
279.5631196
277.5640265
276.8069876
279.8770634
283.6468467
288.1177485
293.8155725
307.2116573
307.4368812
289.4281437
286.3507291
284.3447995
296.274438
301.6954301
297.0340685
315.9361668
302.0487707
301.9005378
296.5743695
284.2459681
292.9010203
306.4897541
300.4750132
291.5715541
300.6006832
302.8761632
296.0839293
292.3631646
294.3598832
301.4889168
309.5204391
303.1038224
291.3810401
303.5804203
297.4776443
295.0253809
297.5613615
303.5276788
315.0767299
308.7407807
298.8150521
288.410288
283.8629627
281.4102584
297.5874367
304.1932779
304.3401493
301.0671101
294.2014178
302.5180574
286.6938109
296.4808891
296.6245064
279.9184508
287.4943109
294.532182
297.2237864
304.0649597
315.0719051
311.1385498
291.6778134
295.1137913
304.7054866
291.4565545
309.3495903
307.8981297
317.5269803
326.3791374
314.0974678
297.7502816
304.2608941
312.6641699
318.4975001
323.3755934
310.566997
299.648502
308.2479309
310.2766605
314.9390281
316.2765263
324.7682567
308.8558072
306.4477819
303.6049675
313.4984368
314.0489551
320.3007618
313.18715
313.968204
312.6396273
316.5499906
309.7380688
296.26995
321.4561211
312.6027589
306.073995
299.3999358
307.5742312
302.6636132
294.0798173
304.5384635
303.0183117
307.9868195
315.7555945
296.5260827
291.4106653
296.1537042
307.1334627
301.4387309
305.3642095
305.6269143
314.0946019
303.7237952
299.1359465
303.4053853
310.0910986
313.457272
305.7041673
291.2645282
294.4124725
307.3619942
301.7201633
300.2533343
296.5472829
287.2988601
286.7913002
281.6037855
300.5483315
314.7439387
304.1865599
304.4913095
307.0308829
319.5838949
311.0187817
285.7350198
294.1266466
292.1941287
293.4269286
300.2549061
305.1114803
298.386628
281.5138226
294.4881827
288.1199913
297.4274848
302.4240928
300.5447623
303.523139
319.4289347
323.4351272
315.57393
305.4774921
297.2153067
310.109934
307.3690472
298.5442075
307.0392667
311.9088801
315.2111078
309.9744875
309.3853416
312.9486656
303.6253
288.3791483
315.5660814
299.5447768
293.0260098
281.0677897
293.6017927
304.4439232
302.5245778
306.3635382
300.7599242
300.1058198
307.432095
314.6506362
314.7723524
307.8435983
301.2809583
312.9170878
314.5583392
305.8310325
314.2725888
320.8307365
304.3800644
321.5586853
321.0410443
309.8316355
297.4877382
306.1555868
328.017845
326.0726282
311.6834944
305.346114
309.3190421
311.1186003
317.5502699
318.5378762
323.5782929
309.4743966
304.1393346
313.7354827
313.358711
306.5794936
315.5410148
303.0342997
303.3588122
308.9919151
298.3471684
311.7295377
320.5615545
305.5677912
303.4936741
298.9915651
302.4717193
300.859294
304.392327
313.067893
319.5573637
314.4667086
312.867331
303.6344121
303.9323889
302.671272
304.4531146
307.2605762
300.7303848
304.111735
305.2471043
311.2733868
308.8067978
295.3751113
291.8307311
300.6659467
304.950818
304.1530038
309.4523956
310.5791684
290.7817815
274.3751376
276.1276398
307.7672944
299.007561
304.7382994
301.7667129
292.4103564
297.8324594
296.2829698
303.3600564
283.0296228
285.7954876
294.6903748
299.1285838
302.6543338
295.0218146
290.7845275
294.1018669
294.8773181
307.5395898
304.6370741
303.4723331
286.5544545
284.3377733
293.0173311
297.3774248
302.5373851
291.9908652
287.4601847
287.1030704
298.9614097
295.5831279
307.7115525
305.0078633
295.6401049
290.6410277
301.5812914
288.7013436
292.8342787
290.027363
291.6038023
296.7943869
299.31935
304.749887
305.3578566
292.8391788
284.6106736
289.7702218
298.8694918
287.6419547
287.8720569
287.9762469
301.8231204
298.9059692
293.388307
289.7569457
296.5129546
309.1809379
321.7257897
304.653058
294.4215544
286.0909887
289.0171805
298.417509
288.4353236
285.38481
275.4614509
284.2663114
283.849247
292.0592045
299.6775082
292.2331244
308.1329738
305.5025211
299.8392517
301.0834362
298.0708868
301.3754074
284.8169004
287.5902441
287.1334931
289.3008317
275.7161181
277.5075172
282.7848337
291.4599244
297.7100453
299.9766367
288.3874904
282.5237451
296.3285196
300.6315549
289.1011281
302.9938843
298.9070816
293.4892823
293.9938064
298.8596062
287.638561
291.1304189
295.1696325
293.4753907
295.741962
292.3783234
298.9357854
295.3027029
289.8851555
293.0184615
283.0706043
284.1594923
304.5300243
296.9386185
300.4753589
300.5926614
287.446306
282.4817464
285.0788552
273.001025
274.3402698
281.721017
296.868868
303.6462171
315.3538027
305.7322251
307.1904193
296.9796788
289.03269
293.0582511
296.6345262
307.5743008
312.7966981
309.8263244
290.3213684
285.649999
294.9419999
303.7302579
304.4708177
314.8586942
317.3988429
301.193825
313.6467169
311.533091
309.7173839
305.2071873
307.6125463
286.2558377
295.4424626
308.9951588
309.272083
315.8575282
313.9843548
314.1068261
299.6577699
283.2495004
285.3569279
292.039078
313.1027614
303.2802884
309.9757846
311.4531277
306.2034928
318.5333382
307.2657475
293.5098215
281.3276532
291.7176663
294.137514
291.3313681
291.6817721
287.2363629
287.7983946
295.8211779
306.6018902
313.2235585
312.5492813
310.3002779
306.625798
304.22907
297.2225325
306.6441009
308.5212928
306.3333014
317.0437188
310.4627333
322.073366
301.2226135
299.4454264
305.1247856
299.6555564
297.5334115
288.4757351
296.7835136
299.3492447
281.4285375
297.6968651
315.4329629
312.1924837
298.207951
313.7164158
312.5011352
296.9377449
289.0958312
292.0071896
296.7156629
293.4615191
310.5566811
292.9090285
289.9988824
285.6086266
298.6236041
307.7881068
309.2425109
300.6172548
296.7689188
304.5145488
307.5056922
312.0286332
308.6436858
297.6839879
294.1757785
277.0673696
276.338166
282.352642
289.5068261
294.5844442
296.5594272
305.4781031
314.5543489
301.905236
295.4478634
305.5198603
306.4832609
305.1875779
303.9933449
302.032449
296.6879376
307.8719369
311.7829158
316.112293
313.3904431
310.6928582
312.6005275
308.3653489
303.3934556
308.5908189
293.6524465
304.2338579
320.8374828
331.2035031
318.3751388
317.5767584
315.1381099
312.9093704
308.2278469
307.0708288
314.7654313
314.7121353
313.770892
315.4689529
316.208435
321.61724
302.2806055
303.6018159
311.5211172
303.84038
306.5830877
299.0006434
291.3318349
291.1086299
294.5369471
286.866123
280.989236
289.5848562
317.9076012
322.8220517
306.9804805
301.162171
287.7425254
298.9510508
304.1289488
297.1757404
307.4931928
306.4904639
297.3408803
293.9432949
297.6854216
297.140522
293.6189887
302.2787124
313.0600347
326.4853805
329.1957429
322.5953471
313.9633811
312.0974021
317.034253
304.5018622
292.9468196
287.4406989
291.3475737
308.8688704
311.8900318
311.8938865
319.2362541
311.0715361
311.1946133
310.8060442
312.75043
311.4007235
308.4935823
294.876762
284.4876352
286.0812309
292.5919312
299.8957352
308.8802687
318.8245931
322.2695158
319.3283028
307.6067612
304.3937701
309.2115051
301.9997655
307.1537621
309.3100334
305.265063
310.9717798
310.7813229
314.183501
310.343729
300.0648828
308.4758398
314.2964306
314.1028011
302.2772473
299.6410113
303.1554697
294.6401519
283.1910372
283.2693833
299.215968
292.4664693
299.6551954
304.0872696
301.201152
282.3434657
284.3445843
280.4185714
271.7288005
303.5935081
309.4059595
307.3182094
297.0752706
286.4956337
286.078494
282.1781021
291.5924278
289.0104209
297.3128805
291.3472535
289.3089151
315.5397302
303.3946334
295.4544178
279.5607385
293.6415822
287.3397838
302.8666044
309.5335015
299.409418
300.1724531
298.087291
293.3732196
290.1420069
297.8779917
304.1236596
288.2447986
309.111395
306.228564
300.1187082
301.1622084
297.9329544
300.0994385
305.1232103
299.5145791
291.8778316
289.9145083
288.1704115
284.1500919
291.7450605
296.5989976
326.1859839
310.8808847
306.4286079
305.6737906
305.409677
295.557521
294.4082259
294.0247915
311.1142998
304.7261678
307.4869149
295.233038
298.3158067
304.3641881
313.4061816
313.8119759
309.1719578
307.1270206
314.8420655
307.0698068
308.3451783
321.3512777
309.1092096
303.5078797
310.6571551
313.5326878
297.9959392
290.7440435
296.7259627
287.9637873
279.0697883
293.8213293
305.8171017
313.6385908
296.5573152
291.4533463
302.0328302
308.5100826
302.7973845
289.0505909
292.1601493
302.1410125
311.754017
314.3309944
305.9976442
304.8041969
306.8622207
295.4830035
288.8426236
292.0402268
295.819777
284.4772021
290.3327262
291.5873963
265.1178945
279.5926245
294.0411851
299.7265037
293.7286827
298.7638345
296.1184561
294.9688626
298.4021267
299.6054245
311.9625499
304.0956671
305.371695
310.1916433
297.6854349
305.0815575
295.6449525
299.3530449
299.1359512
282.4121803
318.4104863
298.3916353
292.2364112
299.8847626
304.1013488
295.194624
294.6462859
296.8516263
297.6589527
292.2530578
287.746077
293.1240944
294.0538389
300.7612714
292.5783383
300.6842557
297.2026879
306.6650505
315.4957141
312.7892497
312.3682883
300.9914565
297.6960209
303.7917527
293.5232772
295.9251751
295.3541261
302.5734674
291.3916965
297.3566407
306.1668256
300.1763537
292.8368903
292.355691
299.0429194
310.0837937
309.4217919
307.2582074
307.0026555
299.8853404
324.7527968
314.4842638
293.6443133
304.1904751
317.4093066
320.5345976
310.1574551
320.0185835
331.2211075
311.3911351
294.7609236
302.553787
300.7505714
298.7325768
298.488953
304.7592974
323.9610169
319.943462
311.6585962
311.9007443
283.8690504
302.123908
306.8127053
314.6676501
314.7566991
319.4944417
319.5163773
318.0842525
294.1232625
288.1289266
293.0797569
299.0468143
309.0620768
303.0656243
305.0329603
303.7498764
287.8036035
288.8137924
289.9667877
283.9733959
304.2914801
308.3244443
311.3946214
301.4905982
312.3886294
296.6530759
286.0259636
291.2839947
299.721477
307.3109335
312.3721876
308.4688008
300.9474183
296.1595136
292.4887345
298.7489697
301.2240552
294.2101717
293.5212356
301.0883437
307.073038
302.5686249
300.7037654
299.6974859
303.0174346
310.3468605
323.2859705
323.197172
307.8736986
295.9247501
288.6674898
296.0977877
290.1859492
292.0588107
289.9103074
295.3356526
296.6313188
301.1853831
298.9197028
297.5041155
282.1365887
295.9280778
298.1065088
301.694546
309.0557984
292.6569994
295.4705979
309.2046033
310.8009489
315.6946549
317.930862
309.091939
306.4317562
286.2694529
290.4426519
295.6602771
291.5654117
296.0481674
287.7792604
294.5877282
306.7531167
305.4512734
313.1612374
319.5681577
313.4979605
319.8431747
316.2760242
315.0523866
316.6664007
313.347365
309.5453755
308.100387
303.5492667
311.8535461
309.8358694
306.0531668
308.9916471
305.0202905
314.0427222
306.8088643
307.823669
307.3502803
300.0485973
295.7488094
303.1148507
305.0799694
305.9612435
309.3171423
300.3986847
313.750803
309.3942424
309.8868313
311.1383904
314.5034999
305.7508258
307.871014
305.5263751
321.5332085
313.3866895
306.6415699
308.2313735
295.5553021
307.7053632
311.3411475
305.8033423
293.1470563
292.285623
298.0433989
290.9354985
293.796224
293.6928063
292.8678682
300.8052638
316.6700849
312.0094254
316.5183594
307.624179
305.6468362
305.7668118
309.4492331
297.064095
298.0947604
288.9628655
298.2765806
295.0988533
297.3766028
295.5584747
299.4402704
301.582056
302.1958997
301.7203197
297.7664956
302.5032417
296.3037569
316.9478277
312.3190191
320.1450436
315.7606933
308.3708278
304.2234962
285.9935284
285.1917391
295.9576869
276.7045349
285.9303455
289.4882931
297.2064106
297.0677539
297.3072503
294.1289609
295.9230974
296.1466082
278.3107576
286.1910123
289.9046065
285.6103768
281.6476714
284.1780251
281.9756973
269.1507623
306.1080641
306.9534806
305.7501115
299.6346431
299.3994412
305.8385494
299.740195
305.9364077
302.7303968
287.1630505
280.392012
291.7557303
301.3023326
303.054995
293.9091396
283.5871595
278.9269033
288.0038769
300.8878378
300.4723927
301.3488759
312.4612707
315.5507793
318.2274297
318.0112919
309.8041867
289.3660026
295.2999169
300.0125425
309.7382526
305.6659409
295.3051015
301.0699643
303.8182973
301.004918
303.7435688
311.53659
306.1258384
298.0936601
298.3401581
308.7343417
292.931242
295.9170098
295.2890086
288.3013612
283.0687266
292.4478093
303.8393699
299.2328808
301.083727
295.2320449
311.9448178
301.3635888
279.3493301
283.7470281
286.5980025
296.0673258
294.862541
293.9473764
300.7928759
311.246674
322.3248438
304.4797892
304.9545451
301.0376123
293.3507697
296.7442184
301.1297753
301.0889277
303.8973662
309.3944625
295.6798328
296.4363942
308.0358868
299.9665977
291.5209058
294.1198131
286.9027058
289.9183832
298.398992
296.7085361
312.234565
316.655048
314.970959
302.8807113
309.2290963
302.0038458
294.1746479
290.1365485
291.2724676
289.2791994
301.818379
312.6346247
315.3486174
311.7792342
312.1687551
300.25845
288.1795504
293.802341
302.4855099
307.0762805
303.5918816
307.3370185
291.8829172
288.7693626
286.3192794
300.5747731
291.6830414
306.0305954
304.1627643
305.0278331
291.6856394
296.4855551
289.8195963
285.9164353
293.1347539
283.2815241
278.0018335
281.2747264
298.3456676
283.1252593
301.8163377
304.1632334
303.6400908
299.3402772
294.0532681
290.7789179
292.8127758
295.7590421
317.4212502
313.5728297
313.8838904
304.781405
322.0313445
307.0250927
306.7622183
326.9358133
316.5084086
318.2742495
308.5948546
295.5608527
297.3933958
295.2555169
300.3184586
285.7115471
294.5355132
296.4805707
284.770818
278.2879898
286.8397249
282.9498122
278.458686
295.1919969
292.5068521
292.7229331
282.9596817
286.0072773
287.5740783
301.3005733
298.9385307
306.84863
296.0177546
289.3179994
290.8544443
293.3114905
294.0882156
303.0817683
306.0485995
308.6439813
321.1016649
322.2046186
296.5015572
293.8251173
306.338388
306.7366083
322.6543507
309.8583303
305.3753498
301.8466388
309.1254781
305.0737056
303.2939803
300.0383031
298.2553748
295.827647
299.6229257
302.5982719
313.687783
295.4839324
288.9451443
294.1160125
302.2498993
312.6673402
317.9652764
315.5939486
311.2643896
300.2253484
289.7770224
306.5707213
301.308744
298.1513753
298.4536058
295.2245137
292.3281344
304.5445238
305.3277671
310.6638078
299.3339337
305.7094746
305.8970807
304.0093992
305.2287813
300.1377415
288.8046228
290.7714205
286.2726046
280.5609154
296.5779684
304.1594646
296.9135014
319.8082636
322.5875775
313.4524144
301.2974582
291.6661796
289.1437072
290.7276175
304.2590604
294.0833657
288.2948506
285.7406285
290.6365862
296.2138002
292.9058977
296.3621015
313.5882925
310.9568753
310.0914863
307.3118333
309.679108
309.8305764
310.7398153
320.836457
328.4920889
323.0083646
313.330539
310.4969174
295.5627783
307.0635887
301.131389
315.6289263
312.817969
292.8102503
298.7543013
308.1331463
303.3965097
295.0958274
298.9705262
296.1042662
305.425733
310.7984517
305.9906159
295.552513
287.873008
296.2436885
298.1287887
302.7822954
315.2890949
312.6868694
297.6128903
293.4538781
305.8381057
307.0443814
295.5301793
293.0725171
292.5605012
292.6428382
313.2289634
318.6893914
324.2356415
310.6161066
302.9247005
298.21229
317.3731149
314.0750211
311.1765158
293.3763957
295.0665811
292.8770754
308.0688109
305.4922834
304.220193
320.3967121
309.9525803
308.0416848
308.1137426
297.398843
290.7133825
297.6006804
300.7957074
277.7546056
280.2746165
285.7506241
285.3535116
286.8267149
295.991546
298.9009997
285.5308327
280.2738332
295.1091764
314.422252
308.0372314
304.5862162