/*--------------------------------*- C++ -*----------------------------------*\
| =========                 |                                                 |
| \\      /  F ield         | OpenFOAM: The Open Source CFD Toolbox           |
|  \\    /   O peration     | Version:  2.4.0-MNF                             |
|   \\  /    A nd           | Web:      www.OpenFOAM.org                      |
|    \\/     M anipulation  |                                                 |
\*---------------------------------------------------------------------------*/
FoamFile
{
    version     2.0;
    format      ascii;
    class       volVectorField;
    location    "0.0008";
    object      UMean_mixture;
}
// * * * * * * * * * * * * * * * * * * * * * * * * * * * * * * * * * * * * * //

dimensions      [0 1 -1 0 0 0 0];

internalField   nonuniform List<vector> 
5120
(
(1963.875199 26.20920465 -17.73164632)
(1950.287504 24.34232725 -23.36010496)
(1961.942206 26.47501825 -19.03380715)
(1963.68069 36.81689381 -2.979645924)
(1958.982703 19.70402103 1.710115629)
(1937.303999 10.13429219 13.40774651)
(1932.885557 1.3647419 0.05497747203)
(1944.176107 -1.227367524 1.581545121)
(1955.497125 -5.321702849 1.503530374)
(1964.665409 -13.23329366 -4.399472684)
(1974.954058 3.740827787 -6.858325922)
(1976.907458 9.950458845 0.6051216875)
(1952.676843 6.744851822 0.7208118335)
(1942.889176 4.906379817 -5.690109907)
(1945.247988 15.388759 14.5835401)
(1948.159766 12.95420311 -4.017516603)
(1958.125352 17.06130906 -7.513634634)
(1964.398645 11.00377928 -15.99746175)
(1960.108494 11.83637318 -7.538001536)
(1964.266948 7.222422399 -11.18140921)
(1956.961773 23.98542539 7.792439741)
(1956.181378 19.1904914 13.43457626)
(1951.181007 7.569861915 27.75436041)
(1961.747288 -6.323676151 20.65667896)
(1970.263255 -12.74160753 19.71353194)
(1976.033815 7.254405229 3.99667424)
(1980.376264 -6.330056484 4.478513531)
(1967.351637 -9.572324203 -7.08888037)
(1962.669982 0.6265730258 -7.311625349)
(1959.556892 12.47755588 12.4444116)
(1960.782319 5.886604594 20.56830514)
(1960.543279 4.125818308 18.69409647)
(1977.1858 3.685529991 35.59344661)
(1974.306939 5.559437883 25.12240611)
(1967.978584 -1.196479341 11.13093854)
(1953.115121 -3.906911445 18.09313136)
(1963.803042 11.27341009 11.27066572)
(1966.829073 19.10957979 25.03853681)
(1949.277003 16.54721961 11.20495074)
(1941.498698 11.8283628 17.04307299)
(1958.766618 -29.87614471 3.613949652)
(1954.187408 -21.65001665 8.614837525)
(1952.052248 1.087742795 -2.698105691)
(1944.358075 -4.294374662 -11.37216428)
(1931.623321 -1.454922763 -13.45607212)
(1926.936955 3.925026529 -7.54527609)
(1940.351653 1.479011903 -0.01369868076)
(1949.408199 0.1831569017 7.792117037)
(1956.148639 5.140240052 -6.646806328)
(1942.025793 5.291031779 -8.136864162)
(1953.08196 9.946862675 5.297310851)
(1955.101289 -1.852640181 -0.691541025)
(1963.095326 3.267909482 -10.33683295)
(1955.307154 -6.958557942 4.761307029)
(1954.585785 -3.526721812 13.49947612)
(1957.194645 -2.991914442 7.790074201)
(1955.045351 -8.528743198 5.059688262)
(1951.213739 -14.46537019 6.130352604)
(1952.481305 -4.120710359 5.398221033)
(1968.286264 -10.00798096 -2.367120723)
(1961.411494 -3.053630937 -6.639965993)
(1959.630812 -10.08863547 -5.765821245)
(1968.325834 -6.181863008 0.7735081324)
(1952.150845 11.77975561 2.213142065)
(1942.528092 0.7565578032 20.89662991)
(1955.485166 -8.83915795 6.299981071)
(1964.262679 3.282590362 13.11833533)
(1945.455656 -5.319990213 -10.98787338)
(1951.005401 -19.56576599 -12.51758481)
(1960.710303 -6.593898384 -8.125314821)
(1957.222269 -10.43019848 -8.515753359)
(1960.172499 -2.092159937 -0.2468102663)
(1951.536033 -0.8519347721 2.787802301)
(1941.91477 -5.992476787 -10.71074209)
(1945.293866 -9.954749833 1.319240384)
(1959.416412 -13.03322677 -4.34999749)
(1962.663796 -1.843043933 -2.857395095)
(1957.114901 4.329681039 2.47225854)
(1969.382587 2.898193356 -7.751160207)
(1965.931534 5.297161447 -1.95715916)
(1948.837261 -0.8102612068 26.3214094)
(1930.22948 -4.472901308 11.56468523)
(1932.831543 -7.00946475 0.1549077376)
(1935.134212 -33.81047374 -6.061461942)
(1939.905733 -25.78180334 -18.18148411)
(1929.348111 7.642347817 -4.105677304)
(1933.437228 -2.256884854 3.521413056)
(1926.88827 9.444624224 8.909700008)
(1942.264285 16.55060712 -0.0729371283)
(1945.373997 6.308932147 1.033678975)
(1949.881186 11.11718945 -3.564984618)
(1938.355951 6.993572459 -2.840284619)
(1934.848808 -0.3812882338 20.0551623)
(1952.395492 26.80279699 24.94469163)
(1954.785164 28.03445149 30.67573245)
(1954.50447 11.95247366 30.34411393)
(1944.717807 1.727258438 22.54758332)
(1957.671707 12.86403462 7.892876916)
(1943.232417 7.476098382 2.052643656)
(1938.778987 1.855161943 12.69327165)
(1948.186049 2.349305411 21.37921056)
(1955.574953 -4.356742118 11.69680366)
(1946.375842 -10.13449813 2.111436442)
(1934.049956 5.071832971 -13.1535553)
(1929.987395 14.54960043 -28.44722371)
(1937.682962 9.034804818 -23.72305468)
(1939.779917 -9.422370341 -22.69030757)
(1941.306151 -13.70442347 -20.49798643)
(1937.682749 -14.56237739 -3.333378153)
(1952.675004 -8.596734291 3.079589706)
(1941.142603 -2.112053793 8.483099674)
(1934.965422 -0.5518628661 -11.72486911)
(1939.890058 4.526698984 -19.32308614)
(1936.787035 -16.83764912 -3.514336705)
(1942.804998 -20.96975984 -6.787190714)
(1965.308004 -24.09988485 -22.03278828)
(1976.904368 -9.127615658 -21.89603641)
(1967.244664 7.207614065 -12.01070242)
(1971.763897 3.110609921 -10.02724396)
(1946.104141 12.1601039 5.765593591)
(1960.547783 -8.399682375 21.60436293)
(1961.906244 7.509456823 9.011240661)
(1957.126532 3.368233258 20.86168011)
(1966.568332 -4.484513987 25.94768319)
(1947.561209 1.005375096 22.04321767)
(1932.298925 6.790190728 9.696926404)
(1933.282943 -8.000658398 0.2784619415)
(1938.009523 -14.16124919 -7.827118829)
(1934.053251 -16.03248493 -4.968674338)
(1937.502855 -0.8206133278 -2.424230092)
(1944.552299 -10.64851757 2.966370044)
(1957.032918 -4.38598725 5.968966107)
(1945.704295 -2.642690716 0.9379210373)
(1943.074701 0.8133695077 -3.5231739)
(1946.650119 15.09819109 4.440035901)
(1938.670439 4.200528135 5.692495889)
(1943.389891 -5.893766351 -4.552353699)
(1953.474327 -4.821628413 -3.917327342)
(1956.038543 -6.06580711 2.864087626)
(1964.566304 -10.19752088 9.741417999)
(1969.175143 -0.4276772807 16.50949545)
(1974.710483 -5.989423378 -5.572326485)
(1972.061712 -4.46339868 6.20538615)
(1960.762692 -11.95718034 -1.5444624)
(1963.977288 -19.60158391 -0.3725800005)
(1958.055191 -22.42272874 -3.315935077)
(1952.379376 -16.42897056 20.03225584)
(1956.194877 -11.58301644 25.14344061)
(1967.597932 0.03445380611 35.80452434)
(1967.852649 10.73642232 20.29867051)
(1971.996036 11.08097034 14.62990526)
(1969.021389 19.3095495 16.10747801)
(1969.411828 12.23268182 9.017193043)
(1953.965428 0.8035777989 11.30561378)
(1962.808406 -7.976871935 -4.754855262)
(1953.445884 8.303122862 -3.423264357)
(1951.118961 12.4864295 16.5999781)
(1948.637269 7.146687071 16.69139774)
(1952.704738 -11.34484668 19.02891692)
(1965.977994 -15.63732698 14.94997272)
(1950.731183 -5.371892478 9.666303516)
(1948.027911 0.5361888962 25.17407984)
(1944.712065 -1.916214791 17.63131845)
(1944.102473 -12.29631024 22.84422591)
(1937.263537 -7.613309145 27.71850903)
(1934.105988 -9.425467974 26.77710278)
(1948.369825 1.148191917 -2.716180142)
(1927.260078 0.6826256377 0.3930237402)
(1913.944605 -5.52312582 -4.444793996)
(1922.687333 -15.02877869 -2.463867583)
(1946.42886 -31.92694854 -0.574042831)
(1935.690403 -20.54235743 5.095619767)
(1943.054366 -37.27515582 -1.575395259)
(1942.112136 -19.57935486 -18.8471343)
(1946.776279 -2.030321578 -12.38966193)
(1957.999926 8.110129286 1.983414091)
(1960.260191 -9.467823163 5.012125979)
(1956.701372 -16.17247668 17.65314337)
(1955.541854 -11.89121835 12.61620034)
(1954.2704 1.727320084 16.2428921)
(1937.781748 -21.14984182 30.48130444)
(1945.91375 0.5252242869 12.85325885)
(1931.472837 -1.678020316 20.00558854)
(1942.02024 -13.18766994 23.70411654)
(1934.583069 -1.296620843 2.181178319)
(1931.739346 14.71959902 -12.65310197)
(1933.055513 0.5139413296 -5.350376951)
(1929.019401 -11.8916367 -20.40886967)
(1933.336478 -14.77186871 -33.3905862)
(1931.341609 -6.687603628 -2.910449624)
(1936.077444 6.047064639 5.427053647)
(1933.865551 15.85692419 3.485940698)
(1935.489202 -11.94576088 0.07239938956)
(1930.323979 -9.354106495 -8.38637922)
(1940.131563 -10.53793356 -13.14180916)
(1946.864724 -9.393425945 -7.684374625)
(1946.939568 -16.24444532 -16.07966264)
(1940.836376 -20.14583333 -29.99730553)
(1945.134927 -14.83147679 -11.17742456)
(1943.400995 -19.46946632 16.30928192)
(1928.339358 8.236852964 -0.2336275955)
(1942.107796 10.61095436 1.74433447)
(1942.09195 10.98161961 7.424919265)
(1945.540605 11.09541111 -6.68984672)
(1948.972513 0.02650477152 5.99916262)
(1947.474758 -4.134870673 -2.766017831)
(1952.15768 -4.758317235 -9.191947249)
(1953.454984 1.473721333 -4.063036778)
(1957.49214 -3.303474517 -4.694167851)
(1937.738102 5.352558977 -7.239456707)
(1927.80167 12.26859969 -20.07469929)
(1948.765854 0.1460107885 -21.73744613)
(1956.671997 14.49736972 -0.4083485799)
(1966.605665 7.746633215 -5.321536549)
(1965.18954 4.806447458 -15.68274095)
(1947.534168 -0.7627804085 -10.61344138)
(1931.989426 -9.971871354 -6.350772345)
(1931.887538 0.4399033818 9.375857292)
(1926.619687 -14.31188916 2.121292379)
(1920.489626 -3.75158263 5.739955738)
(1953.135025 7.523262731 5.90136567)
(1946.732895 15.6294465 9.252526288)
(1930.472137 14.62225473 -5.836184969)
(1926.282531 16.77988598 2.323643657)
(1938.612256 6.317314055 4.701731314)
(1948.599405 5.382030343 -1.582033365)
(1946.838978 10.07647606 -2.305575056)
(1950.709249 8.935652488 1.615213555)
(1953.925456 9.321423518 -8.824250447)
(1955.638578 12.0048971 0.3834239989)
(1951.330884 10.52920459 3.370767693)
(1955.51475 3.988633225 -16.5255713)
(1956.953839 17.82254143 -20.59510566)
(1955.63651 24.96791737 -14.14140137)
(1961.307815 25.89865122 -0.7786964111)
(1945.886288 22.00421654 -8.990075691)
(1947.863694 16.88141005 8.761103508)
(1960.631078 12.06933579 4.671097194)
(1953.376601 6.743627554 -1.071624709)
(1943.974118 -3.748039846 -13.9409267)
(1946.798951 -8.125284036 6.845035078)
(1948.7123 -13.55998513 7.741119826)
(1954.874156 -21.66552848 7.710451675)
(1977.252101 -4.063430724 5.336369864)
(1965.899822 19.89955226 23.91209291)
(1959.989249 25.41786964 17.51502878)
(1966.171532 16.30494289 6.318265575)
(1960.061408 21.47278086 7.448725263)
(1970.698335 10.49827908 8.295452964)
(1970.646941 10.52986494 0.8983706436)
(1965.667498 16.31207892 -11.74577961)
(1967.697684 15.53633651 -13.16127393)
(1956.139511 -5.626849394 -10.03641371)
(1944.253265 -1.860574787 -18.49058385)
(1950.19891 -2.452431581 -12.77701633)
(1951.520351 11.96680766 -10.81639555)
(1954.4107 10.13270657 -11.24699321)
(1950.922429 14.67130893 1.074715715)
(1946.925411 19.35459838 6.326028098)
(1964.612698 0.6059997965 22.03105936)
(1960.348521 -10.06530231 -16.66259543)
(1951.363698 -1.283968907 -19.86346737)
(1942.028355 13.80114248 -2.350094394)
(1927.670851 9.205214427 9.587541133)
(1933.913163 7.849426521 1.774831123)
(1929.806442 4.115086734 -13.56161337)
(1938.988872 -1.453920292 10.90712135)
(1947.491651 0.2392971082 3.566761952)
(1951.078856 7.767144822 -5.318586224)
(1940.706317 16.05956859 -7.584854812)
(1920.831566 13.22428747 5.05434049)
(1927.503354 32.1923582 12.95329112)
(1932.245321 37.26228508 4.56045631)
(1944.806119 15.00330416 22.80200443)
(1953.347343 13.90459301 5.357860057)
(1963.884331 -4.327053587 -20.36831187)
(1961.831307 5.869300334 -15.82914312)
(1951.822333 6.079271963 -11.47099832)
(1966.350646 -12.05141675 -23.51325053)
(1966.978426 -0.9868062016 -10.07596238)
(1958.520867 3.112619182 -29.89400716)
(1952.282142 -5.662686295 5.608514482)
(1948.345476 1.857908777 15.88699626)
(1937.178252 -4.466346278 -5.142668158)
(1944.568834 11.83930096 -7.973160514)
(1933.154261 -5.189083857 -10.45882797)
(1929.717 5.46629911 0.7859180988)
(1926.612216 -1.744427533 9.393305206)
(1922.92978 -11.93382959 14.28913187)
(1925.986326 -13.35500654 6.501422127)
(1937.529651 -3.859972245 9.726450169)
(1942.939201 7.355363191 -3.949455891)
(1941.151526 0.4815280797 4.831110561)
(1929.605247 11.23698084 0.3086734837)
(1928.942463 14.32631437 -0.2671400458)
(1937.698456 20.27043648 -0.57244967)
(1935.100156 11.41148499 -8.526125895)
(1956.117984 7.710137701 3.17290248)
(1964.055297 17.89729335 -6.121707255)
(1951.646804 25.01855323 -27.7034448)
(1948.873938 -0.9972669637 11.31649591)
(1959.985794 0.4987340679 5.250863268)
(1939.337485 7.729092996 -6.416719171)
(1949.819336 13.26701025 4.614994036)
(1943.918357 3.240914838 11.96934766)
(1955.043324 1.92850928 -5.21782175)
(1942.818506 20.91495421 -13.96160538)
(1924.745181 6.004178763 -6.305299544)
(1929.153445 18.71653273 -9.435786136)
(1934.784623 26.01470045 -18.17187018)
(1928.809755 22.14427749 -9.651629802)
(1929.085461 11.63307958 -8.379691176)
(1929.765368 11.25072481 -19.24370513)
(1937.053304 7.858491741 -6.192680571)
(1933.838216 -16.1369841 -4.976199464)
(1939.465088 -5.010188904 6.359031604)
(1944.495026 3.729126643 15.97402085)
(1929.233724 11.31096611 13.48239274)
(1917.741816 20.95679323 9.669089183)
(1921.243068 7.023213554 -2.325372179)
(1969.208972 -7.038329248 35.18534239)
(1973.654888 -8.470526992 23.25568775)
(1959.167005 12.11214825 9.297964648)
(1966.064092 6.224946642 -2.688355829)
(1974.779673 -12.20978866 -0.312715857)
(1967.547805 -10.13417534 -16.48467341)
(1962.475246 5.893301671 -5.4684753)
(1959.714132 -6.402095728 -5.204424173)
(1963.128931 -6.15293056 -6.133170584)
(1967.063824 -20.23527382 -1.068982267)
(1951.089886 -12.11226377 -13.51109851)
(1967.846867 11.56616727 -13.92871536)
(1952.248955 17.33437738 -19.73429905)
(1948.755955 17.26692786 0.9743782102)
(1939.571857 24.47554007 -1.382677153)
(1936.830557 2.452144442 -4.390161559)
(1927.593776 5.501153262 -3.512692535)
(1929.107789 1.361506176 10.79254919)
(1937.8877 -11.87657151 21.06222484)
(1954.188222 -3.751078893 27.96322934)
(1972.794618 15.57403874 11.23260203)
(1977.507537 17.80989163 13.17085519)
(1969.85033 1.628576516 5.052881101)
(1956.790982 6.582359816 -6.921319202)
(1956.708022 5.464659643 -8.792098126)
(1959.958875 3.875924352 -3.690875992)
(1964.40631 10.66184773 -3.383324258)
(1968.15001 2.712905078 -17.87390691)
(1963.069744 0.2337578043 -7.971516394)
(1962.066857 -5.404054738 -5.559214402)
(1960.830035 -4.87612615 12.46753831)
(1967.47086 2.196184593 -6.392728041)
(1973.843506 2.152078784 -3.062227977)
(1968.584005 0.3840920285 4.365733166)
(1962.137009 8.977514918 18.68235275)
(1973.487717 13.70407922 13.3022472)
(1961.522778 2.5930216 16.0478432)
(1958.959025 -8.226651065 12.62331227)
(1968.265439 11.66653201 22.12504951)
(1968.276723 26.13392199 4.243202178)
(1947.599448 28.89641266 1.402053946)
(1932.849202 8.772984694 -14.74893254)
(1938.910531 7.114958748 -1.659978925)
(1950.583417 -5.910818445 -18.16478285)
(1948.018376 -18.71899939 -6.51484231)
(1939.301257 -13.20937071 -14.90038034)
(1933.534632 -2.376884083 -6.53582419)
(1933.50984 10.21497444 6.378185507)
(1938.574926 22.64402759 10.46928093)
(1939.466764 18.01767752 17.16479192)
(1937.551693 6.471408657 14.07232122)
(1947.648751 -8.864722947 10.72917351)
(1942.723075 -1.442876228 26.31165145)
(1962.718902 -3.576113957 18.13246797)
(1963.851105 -1.187823718 13.53058478)
(1948.394874 3.779922862 17.96817449)
(1944.598246 2.980730436 0.07356528495)
(1950.759903 18.81111884 1.310699308)
(1942.708385 17.60738631 3.195773312)
(1948.292019 16.4018118 8.951987413)
(1964.628477 9.527180911 -7.615951735)
(1957.833641 12.27494397 -15.24832761)
(1960.76839 -0.5960039208 -10.99922013)
(1947.235495 -3.62459602 -10.54473695)
(1962.148229 5.310534983 -17.13742676)
(1950.315604 2.752356902 -17.42433692)
(1950.004284 -19.27927121 -40.83174539)
(1954.250857 -17.61192881 -33.48638822)
(1953.00511 -1.567460079 -25.75018049)
(1952.530326 -11.31901716 -7.362436727)
(1938.924125 -3.644610151 -8.609751052)
(1938.910259 3.528918616 2.539407483)
(1946.924927 -0.1486613862 3.203614213)
(1941.79911 3.468377696 15.08030931)
(1945.064611 23.35784178 14.19954359)
(1944.562916 28.33781205 3.8423971)
(1957.675319 32.31916507 -3.085893607)
(1960.01401 34.78814324 -8.72049605)
(1969.912937 23.81166333 -9.226849744)
(1968.262373 32.84892009 -23.06461734)
(1950.449902 16.63967871 -0.6822559237)
(1943.507706 2.69494484 -1.353244864)
(1936.183729 -5.936981483 6.195920285)
(1923.574398 0.9163923541 6.507520765)
(1944.449649 -10.94622452 11.67455697)
(1945.822347 -21.8582671 3.012062099)
(1944.74973 -7.587926824 0.676134115)
(1960.934018 -8.406569855 -2.398280096)
(1960.470908 7.467417244 5.992225188)
(1951.346045 15.88098952 -2.450513498)
(1939.907054 9.742061298 13.44001924)
(1931.990276 8.962259404 -4.228848666)
(1939.776498 11.4941338 -6.451616756)
(1950.336019 11.12923389 -23.26088561)
(1956.139343 6.425697086 0.774446249)
(1953.070515 9.204155141 11.58191912)
(1949.754431 27.94441536 31.74579866)
(1936.022869 21.46940076 34.41416049)
(1940.180887 14.05813774 19.33140352)
(1946.027566 23.39995631 20.81199453)
(1957.715329 -3.879653889 -22.53527023)
(1950.604571 11.2568603 -4.31984492)
(1952.539256 20.89637379 -6.760543308)
(1957.307574 8.654791149 -11.7627694)
(1956.668229 14.49091643 -1.321921313)
(1962.705867 23.27313178 -5.551597041)
(1949.924736 8.942482999 1.356501561)
(1935.918514 3.112280035 7.560296428)
(1945.766206 3.740648208 8.524102848)
(1946.480349 3.661262483 19.32929384)
(1936.489161 21.06303534 15.71306114)
(1945.847634 22.06489672 16.70029962)
(1944.426629 7.376287161 12.63329767)
(1953.680299 7.417998156 -11.85614373)
(1957.671434 -3.179715893 -6.711998949)
(1960.127855 4.461435154 2.248358047)
(1957.662036 6.995601485 -13.06496429)
(1962.881787 -7.798503101 -16.50819512)
(1968.474825 9.443380309 -6.4368315)
(1969.966609 14.5077522 -3.825532313)
(1944.546024 -5.476094358 2.539210731)
(1943.495529 -6.040924436 -13.44120476)
(1927.646239 -8.512621886 -22.33864048)
(1934.0395 7.898902758 2.471514192)
(1926.656853 17.63019542 6.32062699)
(1922.750256 5.199888262 1.334579382)
(1921.645023 10.05010466 10.34741809)
(1939.636043 -0.7579142958 -0.8260432903)
(1947.286271 -7.375238858 -12.82082345)
(1954.168258 -26.72106297 -1.243010613)
(1958.563592 -13.85927969 4.598418031)
(1954.812292 -26.62638339 0.1659316012)
(1951.023922 -35.80842671 3.789643195)
(1947.791141 -11.21881518 -8.159386808)
(1947.915205 -7.648053481 -11.41749467)
(1952.651613 2.378481499 0.0373139593)
(1950.705055 -1.278622407 8.89158534)
(1951.778471 -4.747922384 7.481029025)
(1950.198317 -18.25916385 11.93789668)
(1949.938665 -12.87174185 5.823311679)
(1963.275868 6.454776731 21.18964931)
(1955.760079 -12.34692891 14.93172724)
(1961.641555 1.469231774 10.51093993)
(1970.190565 9.435021785 -3.009027441)
(1961.952107 12.98129745 13.42118916)
(1967.22352 0.6374065825 0.08852264803)
(1974.783763 1.359066734 -4.764302332)
(1964.523628 -6.990666962 11.80400811)
(1960.96557 -20.27977718 8.906239032)
(1945.292222 -12.58398089 25.43033165)
(1946.337645 -18.22500434 22.76357134)
(1953.554576 6.387885506 19.34181547)
(1961.937482 -4.612204871 0.6993672711)
(1969.040794 -22.67937341 7.323389627)
(1965.098061 -12.58159706 1.484774488)
(1958.093287 -19.25913782 19.28263418)
(1970.44603 -16.90310967 16.57535158)
(1976.992088 -10.04994566 19.05678463)
(1959.953068 5.645292871 18.52198403)
(1952.663428 4.824524817 12.66501241)
(1951.142301 -16.15240702 16.63196082)
(1954.324412 9.790897228 23.7488815)
(1950.702361 8.187478462 23.26411131)
(1951.571687 9.605411693 18.16764284)
(1940.551827 -7.492077158 12.0551776)
(1942.162728 -14.98766812 5.704149357)
(1941.658457 -30.97896566 -5.038993862)
(1954.609551 -22.654407 -16.55105233)
(1956.031803 -16.845259 -13.99985768)
(1957.867349 -12.32269606 -14.04001787)
(1959.961571 -9.0249558 -18.91820083)
(1951.63322 -5.514223513 -28.55384421)
(1946.167957 6.614880856 -16.86270024)
(1949.660537 3.670814117 4.327888638)
(1958.830805 -10.48211624 1.125398371)
(1959.673637 -7.652407302 7.194163595)
(1959.298631 -7.03217506 10.82043046)
(1956.815258 -1.131846276 -14.75280849)
(1960.922265 -9.503637507 -10.46126257)
(1962.794489 -11.67846319 0.9240347672)
(1943.697054 2.549429437 8.925800936)
(1925.69399 -32.35886359 20.58522173)
(1933.57229 -26.56831233 12.33653603)
(1931.156799 -23.14783062 4.768891108)
(1938.570699 -17.38740984 -3.333072059)
(1940.473319 -5.266388564 -10.97785905)
(1940.415616 4.238500207 -25.09127017)
(1943.9134 -3.399251523 -12.21721356)
(1946.528788 -2.203161745 10.42644669)
(1968.069578 4.858479902 6.567005816)
(1965.928454 -12.81895705 13.76154872)
(1963.783329 -28.24509166 4.887050204)
(1965.858159 -28.76722921 -0.5457324448)
(1961.045315 -6.727428495 -2.926925318)
(1955.751578 -3.112853745 -5.037020155)
(1943.163682 -13.27238894 -1.655378178)
(1958.08228 -2.266856888 4.924786858)
(1953.504731 -14.87275031 9.311740163)
(1949.616284 -3.69182857 4.780077864)
(1942.73662 -0.8261179076 11.05629129)
(1944.516737 -9.164783285 -3.744998446)
(1954.604816 -3.857331274 -20.90247876)
(1946.360935 2.715462366 -8.711850837)
(1955.491971 13.33302828 -5.440176004)
(1938.963483 13.02167432 -22.96527149)
(1933.312132 10.53108672 -30.97532949)
(1934.805856 20.25753371 -28.79268281)
(1938.985385 7.043958616 -28.37241578)
(1947.466721 30.33932927 -20.02524187)
(1948.627685 23.17538524 -8.284883753)
(1950.84312 -5.715036194 0.3707167766)
(1935.228079 -2.275621719 0.9030956416)
(1942.981318 -15.18408415 5.563452318)
(1929.151988 -11.9342753 -4.928261104)
(1931.293098 2.883881107 -0.197388516)
(1926.777495 -13.93690808 -11.53540353)
(1921.516666 -13.81701658 -13.72810568)
(1932.649813 -8.838764538 -14.3667988)
(1932.181376 -7.763022259 -7.886257907)
(1950.127083 6.480718367 -19.68134287)
(1943.405663 6.767915548 7.694309325)
(1951.078608 5.330005812 -9.476858209)
(1956.076101 4.038523811 -5.159116845)
(1938.047688 -3.231498662 -9.449781871)
(1948.408696 0.2988297649 -10.7017446)
(1958.134234 -0.4642478421 0.06645791667)
(1962.07429 -14.42101835 17.38254777)
(1949.641682 -9.117988768 12.5678792)
(1944.697493 -4.655972937 0.6733291599)
(1947.507252 9.181722192 -13.61593342)
(1956.340575 17.42993114 -7.729512916)
(1958.403868 24.05030879 -10.34907609)
(1961.827359 25.14025259 -2.756842709)
(1963.458682 18.40108667 -3.026022628)
(1959.648938 7.856398398 -4.42501963)
(1965.950844 2.348246622 -15.27028829)
(1962.05151 -14.67048171 -14.06923412)
(1964.845056 -4.138517039 -3.424307572)
(1967.449894 15.45419074 1.491146001)
(1961.001924 16.97557389 11.62003882)
(1942.427988 13.38365382 -2.860947638)
(1954.312376 14.0488505 -2.344220726)
(1957.40948 2.688240622 -5.352356752)
(1961.80248 -13.84122203 2.740647922)
(1962.430041 -14.75136254 8.087180019)
(1957.306098 -24.62905685 11.53853961)
(1955.066045 -19.56522707 5.973387964)
(1975.4721 1.685370619 7.47792865)
(1967.47428 13.47537018 4.831081305)
(1966.548924 10.17234392 8.057713804)
(1959.508792 16.20061129 1.49056856)
(1964.467761 28.60945457 -0.8891719316)
(1961.163583 6.215355857 -4.526947234)
(1961.381315 -1.563687369 -11.15710342)
(1950.300181 12.52156787 -21.88936301)
(1941.048084 21.47475854 -6.326291407)
(1951.39663 22.05214429 4.416595605)
(1958.501054 10.73354276 -1.269090999)
(1945.680787 12.37362335 3.760916807)
(1935.391033 6.10850791 9.677770098)
(1953.238187 -8.583220301 -7.127148154)
(1950.13397 0.4707133702 -12.44184575)
(1950.84375 16.2335736 -9.381088364)
(1961.124287 8.441237932 -18.22570823)
(1971.136876 -6.74886719 -15.91045158)
(1965.142368 0.371845233 5.487993232)
(1948.156415 13.71297219 7.972254338)
(1949.207814 10.97322392 4.336555175)
(1944.970459 12.52380336 2.845084483)
(1949.631602 25.33180058 9.522206644)
(1929.71319 27.43871452 13.09256084)
(1927.272774 13.01013464 8.594669232)
(1935.977678 17.91951414 6.355590819)
(1939.406374 23.85778893 -22.56506559)
(1939.987005 21.73822691 -16.88109842)
(1938.192214 20.40994553 -7.071985498)
(1942.077321 8.403444183 0.1315597477)
(1943.76643 -9.680223948 -16.55823435)
(1944.114463 -23.06823117 -11.3308763)
(1943.545719 -23.71526392 -17.11486326)
(1953.281348 5.243265991 24.69305808)
(1955.7889 -0.8657528309 1.266605008)
(1937.676974 -5.423839239 -13.09977039)
(1935.8237 12.63821838 -0.3382262292)
(1917.821885 18.39539273 11.08161287)
(1919.139813 23.32581022 19.09041153)
(1936.292208 17.20861038 12.67001166)
(1934.580586 13.02059794 -1.504420726)
(1951.169837 10.42126074 -12.12173833)
(1954.490804 5.529974088 -28.38372967)
(1955.83657 25.12927143 -28.65703246)
(1946.954599 7.01063022 -24.29959868)
(1944.107237 -5.888544971 -21.35657528)
(1951.243995 -4.77042115 -13.4024728)
(1942.802551 -8.427709249 3.715014515)
(1940.480728 -6.192064246 14.35472062)
(1950.873834 5.936803635 15.03579685)
(1947.713463 14.14739759 25.79985012)
(1950.24338 15.53900499 20.697157)
(1953.604488 12.10140851 28.88887426)
(1913.239325 18.38735509 -0.9308489713)
(1919.532019 20.94759305 5.266584576)
(1941.635765 0.9029560041 8.663566807)
(1937.897854 -14.00775212 6.070191423)
(1956.164822 2.943554361 -2.951115187)
(1949.727494 19.93074006 -7.808893166)
(1946.399375 8.859177107 -15.34001295)
(1946.019113 7.784330768 -11.75987878)
(1936.48719 1.6711262 -14.65542499)
(1927.713173 2.921053108 -12.00721074)
(1935.37096 -3.221164872 -16.75561629)
(1933.817493 -0.7060318776 -11.70148525)
(1930.59857 12.89751765 -7.621103067)
(1920.275295 10.27678925 9.014413405)
(1917.172779 14.6324544 8.055425721)
(1924.142273 3.202932012 11.68669408)
(1920.119454 2.550419422 26.17687306)
(1937.152671 15.48219241 6.774051022)
(1944.017976 8.415954131 -3.330024642)
(1931.759064 24.81113879 9.058333331)
(1942.84934 -15.37009272 6.567897975)
(1943.154607 -3.679804705 7.260090581)
(1942.697239 6.027314176 4.645969121)
(1944.77703 -11.96125465 -12.17707094)
(1932.129823 5.270954722 -7.92177246)
(1930.164183 9.481906307 11.48376026)
(1927.022289 -6.466512222 5.758902469)
(1930.822867 -5.796971489 1.691173674)
(1952.162657 6.282001578 -4.010978037)
(1940.947731 12.04440573 -23.26154073)
(1937.653192 5.6033957 -2.625918368)
(1926.663288 0.1224651781 10.71631093)
(1933.917633 -1.290548935 14.82285412)
(1932.967036 13.40676115 3.265130899)
(1947.644387 0.6914651406 1.62690444)
(1944.400755 1.854577606 13.5954627)
(1944.297284 15.70154666 11.08037651)
(1933.306973 14.51935044 1.100274094)
(1941.584982 0.08408286513 5.422246413)
(1936.475399 -6.473637621 8.641079487)
(1922.905665 9.166907609 11.5284357)
(1930.391773 9.949859215 3.749536904)
(1937.098097 12.30684899 8.996490912)
(1942.3986 1.075893679 15.77921524)
(1947.030969 -1.028801818 15.25034424)
(1956.598452 -3.419806982 -0.6508695154)
(1946.223538 0.04349321891 8.071258793)
(1942.108423 4.744491752 12.40096983)
(1937.638994 5.768027241 5.903216756)
(1947.012977 -0.4367798699 -3.343649005)
(1960.508174 -4.708058474 -2.191215631)
(1957.515571 -2.10086831 2.511672221)
(1946.045376 2.12562354 7.481642547)
(1948.964288 6.165017302 -8.570060655)
(1949.168149 -2.88456442 -20.65655217)
(1946.190911 -7.516218247 -8.763811015)
(1953.108166 -21.60885112 4.294975693)
(1956.34152 -20.20066057 20.98748683)
(1942.212562 -5.074198737 16.14426807)
(1928.554751 -7.129089037 18.45192523)
(1979.290902 -3.012800725 3.83067191)
(1980.421322 -10.73670378 12.20564925)
(1970.087032 -5.227012842 9.013304616)
(1971.823296 3.217145803 -6.853421071)
(1962.903577 -3.881293567 -3.152788609)
(1955.80126 4.783126247 2.228479353)
(1944.717224 -0.8469710474 2.124070872)
(1946.073125 -7.1475471 -4.089553852)
(1959.848171 -15.38391247 9.084573536)
(1955.491523 -8.331519628 3.785968909)
(1956.77356 7.573372671 3.019861295)
(1949.720149 8.821306974 -11.91180744)
(1959.504312 -0.4249738099 -4.654325242)
(1964.677302 3.306349128 -4.421526864)
(1951.306243 -3.71253232 4.0033161)
(1951.574916 -6.576149259 -8.940955619)
(1957.625635 6.895181 12.01970163)
(1968.863806 4.38262191 6.127531502)
(1980.341775 -2.260723234 6.841084614)
(1974.843824 2.378218743 -6.348717348)
(1962.85236 -1.137909681 -14.87668098)
(1969.601287 0.5671730221 -23.57813627)
(1973.412283 -7.719760837 -16.37567024)
(1975.068896 -5.077516723 0.9473645315)
(1963.944082 7.990638731 2.394405036)
(1952.288773 2.102339362 -9.709801489)
(1951.967105 19.72161378 -4.910310208)
(1951.764542 -3.00923563 -10.38416327)
(1962.063683 3.522330556 -5.607333656)
(1966.934162 -5.743447465 -10.40030358)
(1969.600087 10.36344386 -0.8180749482)
(1970.646959 -4.755111961 1.024998124)
(1967.331263 -0.007971053406 -7.297160151)
(1968.172508 1.562987772 -19.04127532)
(1971.20216 -2.765317261 -29.5067943)
(1970.391264 -4.384844411 -15.93685189)
(1976.72198 -13.06106888 -22.20977475)
(1978.698129 -23.81953934 -21.35483599)
(1960.31672 -20.4734852 -9.87365226)
(1963.688188 -15.88203615 -9.554810362)
(1935.6304 -2.537566449 3.799026747)
(1947.690763 -4.875906561 2.262878107)
(1961.198421 -4.639399277 1.118362407)
(1972.227381 -4.513715448 7.8751171)
(1959.016007 -7.622797763 2.331556174)
(1968.567165 -3.532428701 20.00276134)
(1969.973215 -6.652294631 23.44156369)
(1948.775512 12.77589151 15.2212764)
(1950.331841 9.072188739 -3.308913675)
(1944.496936 8.604924501 -5.72626507)
(1950.261677 -0.7947125184 -6.898747225)
(1963.123134 7.723807879 -7.006321794)
(1959.191398 -2.950857066 -5.713447135)
(1955.017093 14.37353952 -0.8316182864)
(1961.003403 21.38772625 6.596142594)
(1960.941685 14.46470091 -12.58897932)
(1950.682474 -2.362749879 -21.13528779)
(1953.0507 16.03262703 -13.56307538)
(1954.705409 13.47655962 -10.63714678)
(1946.750596 3.598314578 -1.418010282)
(1955.404221 7.658654014 4.771486002)
(1964.71982 -3.305138697 19.16754261)
(1946.881093 5.586155206 16.80337981)
(1953.958227 12.16840066 9.92827566)
(1949.448743 7.619584785 2.865257622)
(1963.781187 19.92123192 0.8157202147)
(1963.411442 24.82800213 -8.681623117)
(1960.526461 21.10527383 4.470199623)
(1950.510055 20.93381696 -4.766487608)
(1957.61272 12.93706623 -8.233291337)
(1965.600642 -7.568525663 -21.16841894)