/*--------------------------------*- C++ -*----------------------------------*\
| =========                 |                                                 |
| \\      /  F ield         | OpenFOAM: The Open Source CFD Toolbox           |
|  \\    /   O peration     | Version:  2.4.0-MNF                             |
|   \\  /    A nd           | Web:      www.OpenFOAM.org                      |
|    \\/     M anipulation  |                                                 |
\*---------------------------------------------------------------------------*/
FoamFile
{
    version     2.0;
    format      ascii;
    class       volVectorField;
    location    "0.0008";
    object      UMean_O2;
}
// * * * * * * * * * * * * * * * * * * * * * * * * * * * * * * * * * * * * * //

dimensions      [0 1 -1 0 0 0 0];

internalField   nonuniform List<vector> 
5120
(
(1938.638412 38.44957468 -21.85006333)
(1929.397114 56.16137599 -29.75628696)
(1938.168734 42.98388202 -4.38547646)
(1941.464556 48.45282629 27.52796012)
(1959.840167 24.8241663 42.7132342)
(1913.691814 4.291766538 9.368764544)
(1913.391184 -31.06384973 11.2568144)
(1929.013432 -13.07561335 13.49017931)
(1948.874801 3.901972681 6.289472557)
(1983.790374 -3.517547039 11.04825997)
(2001.257217 -5.75314227 8.719203327)
(1990.925815 12.17001225 -10.85468594)
(1958.63736 -3.842896197 -2.565628725)
(1953.974337 -5.19528354 11.08608822)
(1947.538382 5.364941581 32.6446009)
(1938.210931 2.643951818 24.40849254)
(1966.041633 18.99651984 28.66684901)
(1982.226387 10.83316901 31.53882024)
(1962.580917 -2.656579855 11.58404103)
(1967.259719 -23.22770617 -8.921127838)
(1951.485822 0.4769292192 -7.292610218)
(1942.177126 1.110353478 -31.15240868)
(1936.283966 -10.82083091 15.03545456)
(1953.377177 12.10689047 42.55349954)
(1968.292835 0.951404518 30.23138478)
(1981.178665 36.33113315 -20.38980215)
(1987.264732 -1.938526782 10.01930024)
(1981.711904 -12.6742245 -1.79179147)
(1956.814376 7.121348712 3.819251685)
(1936.456646 13.3939771 -8.563565157)
(1943.997262 4.58783878 2.395133867)
(1970.148238 -10.56020566 -2.518858193)
(1982.868731 6.545697211 33.14948946)
(1963.666698 -11.94059593 22.81105956)
(1981.851082 -6.436065293 18.90480749)
(1975.312471 1.336591439 3.475584238)
(2018.425478 22.98421668 -20.44737525)
(1980.955319 18.63326675 -24.69315393)
(1958.23567 0.2145458204 -12.38137458)
(1926.946308 -23.2572228 3.259562241)
(1987.473174 -72.31061356 -18.75697829)
(1988.165757 -28.70436634 3.654107878)
(1976.425516 15.71224557 -5.102160256)
(1954.598041 -1.571421656 17.83057974)
(1950.304585 -7.61225917 -8.753381894)
(1953.321617 -15.21835609 9.034886746)
(1969.195616 0.4171446272 -3.527563967)
(1960.004048 -4.364568429 -25.09589864)
(1972.411719 0.7829206649 -49.76523818)
(1972.961238 20.23900634 -25.86622263)
(1987.402587 40.53242141 0.39382332)
(1982.529953 4.84996446 -11.32127078)
(1968.780017 24.73690246 -30.71530718)
(1992.465886 21.35328817 -4.994269934)
(1931.999298 4.655914978 -15.72786287)
(1939.711324 -33.02317744 -4.130969842)
(1953.092646 -6.441880156 14.17997746)
(1963.894911 -17.3937925 2.077961849)
(1966.446987 -23.2862186 1.081814485)
(1994.446575 -50.92031594 -20.75041261)
(1986.419974 59.75436679 -19.52322218)
(1988.227233 36.11897494 -22.5770333)
(1994.884945 42.10276741 -15.00039586)
(1969.064998 4.949253957 -3.062821455)
(1949.611219 -37.43337605 42.42070225)
(1998.481613 -44.0133065 46.49617055)
(2023.640126 14.86337697 34.96042988)
(1999.482472 4.950918832 25.69796606)
(1975.638886 -31.70331926 -12.32375511)
(1953.633308 -27.40935082 -5.742241596)
(1958.70044 -22.16324348 -36.38388635)
(1934.888714 -30.7157912 -10.81687027)
(1933.685382 -20.97450953 -14.20112634)
(1894.972412 -10.98130971 -29.77424824)
(1906.832402 10.6831438 -15.10212079)
(1929.605919 17.51371609 -13.32995342)
(1967.053223 -7.811730415 -6.011678314)
(1985.497319 21.50320532 36.97297738)
(1983.085915 32.2497913 5.442034656)
(1998.311304 23.69744901 -2.716751422)
(1981.246456 38.87010866 32.764135)
(1968.87497 18.4072357 17.20313751)
(1976.03196 -21.93559443 29.74609856)
(1947.303782 -29.7706762 16.18054931)
(1922.80846 -9.470693716 -3.165268909)
(1898.852029 23.1534404 17.93340789)
(1913.109841 -13.86966725 -4.201063636)
(1901.148037 -10.32642618 -17.76136377)
(1917.904297 34.91143942 -32.67301208)
(1918.977729 1.790513883 -15.99652003)
(1908.417641 -10.97409415 -37.62442684)
(1918.994144 -12.04829895 -2.756800644)
(1879.063978 -6.238180656 11.47554065)
(1903.121544 31.71462731 8.220359986)
(1942.603964 16.59953873 -4.927331486)
(1953.436296 7.159025438 -7.653524462)
(1944.380959 24.37786701 -14.58956206)
(1941.260908 14.52437396 4.044716847)
(1963.20228 16.00257182 15.16493368)
(1949.11978 49.63079472 44.58829448)
(1949.519901 26.18296337 28.88600952)
(1943.481837 13.57363281 21.18745448)
(1931.194066 52.92498312 23.94962942)
(1917.986438 65.2953993 5.963033062)
(1883.874515 61.7271918 -16.426942)
(1880.905619 36.3248535 -23.59858883)
(1906.712008 9.729336685 -19.15683682)
(1905.686086 8.14319642 -19.45804562)
(1911.241093 -25.4913577 -14.41395459)
(1929.606343 -21.23722801 -15.29435032)
(1894.467945 -29.09755916 -19.57336935)
(1870.547389 -36.36248186 -31.61043912)
(1886.077678 -25.56484393 -58.87339979)
(1928.364881 -40.74192892 -27.08342862)
(1938.031804 -17.53090308 -6.443100476)
(1951.437232 -8.553639457 -1.322115805)
(1955.116302 -5.32092277 -9.071370517)
(1959.178173 50.77279767 -5.35717552)
(1973.713258 22.7624274 -34.78718914)
(1954.949732 38.42980272 -8.559821804)
(1969.980638 38.34453803 38.13150122)
(1967.870325 33.48329225 21.49493818)
(1948.31347 19.75165176 33.35503647)
(1964.1332 -17.96444596 29.05148046)
(1948.342515 -2.822829197 20.42900841)
(1934.708801 30.2496377 24.12888378)
(1941.958837 36.66601235 3.402257375)
(1942.622778 19.48899424 -2.655702603)
(1907.397437 22.49909535 -5.828960219)
(1927.477342 -9.721614804 5.451494682)
(1936.487628 -37.79679688 5.574502453)
(1983.037508 -33.44613653 19.06606699)
(1965.161611 -3.355336045 7.531731551)
(1925.097961 13.85909015 -8.510553298)
(1918.311788 40.63837569 3.023551411)
(1904.536302 28.1224432 2.042388692)
(1913.82465 21.47391231 25.9742769)
(1944.115938 18.55856331 17.5100562)
(1957.507224 22.52483257 34.79969413)
(1950.952792 38.27577952 29.86250145)
(1937.536894 -7.135525963 25.82143862)
(1971.521763 -7.4527883 22.85202171)
(1966.485462 -6.443864638 28.35391262)
(1968.696262 8.185304835 28.27776684)
(1957.226586 9.798867163 42.5096093)
(1973.457372 -10.05972443 27.46440503)
(1977.600387 17.63612912 53.34627099)
(1960.682803 15.73595893 44.95417494)
(1969.279183 37.8952554 55.01816545)
(1961.847076 41.92573648 33.91590617)
(1979.90421 15.75941728 34.91885603)
(1964.697006 12.58209003 9.727471542)
(1948.583966 2.025565117 -17.86033241)
(1944.186794 1.052321218 -19.13613566)
(1963.775972 -12.64684641 -18.07801453)
(1964.579684 6.107942342 -26.83089999)
(1931.907144 -3.123132604 -18.8730101)
(1945.683056 4.436699848 4.015046134)
(1937.92466 13.5524378 14.17431254)
(1932.510978 5.473344991 1.078713898)
(1941.840968 -7.813842712 16.98887051)
(1941.484046 1.08208781 26.96234801)
(1946.66246 5.871015965 19.17508311)
(1952.014269 -0.7120068653 26.42496701)
(1962.354722 3.422891081 14.61983153)
(1932.572837 19.11689407 20.38662966)
(1920.02085 0.2437252392 4.368101545)
(1919.760461 0.8023187546 30.03541563)
(1926.295611 20.28590981 3.439623793)
(1943.035327 18.34922644 -16.43829668)
(1938.448865 -10.14987631 -21.50332623)
(1930.586299 -4.036844404 -17.98842711)
(1919.597143 -45.00249557 -0.348261953)
(1908.101825 -38.44092027 -5.977900461)
(1949.507584 2.072609998 -3.28969512)
(1972.79329 9.277888133 -10.1252411)
(1967.332698 13.4644077 -16.25316716)
(1953.29228 -8.076372478 21.7882571)
(1953.640155 -1.665184428 33.95582462)
(1948.635509 16.63610546 29.38198162)
(1906.43054 19.90234683 40.94707961)
(1900.32692 26.92005555 34.52880524)
(1893.454697 29.09970056 11.08644077)
(1888.621385 18.62204141 29.45370698)
(1854.840081 40.57218855 18.0263901)
(1870.505728 24.90896819 -9.822608884)
(1899.544488 7.231745934 10.7206757)
(1897.136548 -43.15702993 -6.784318059)
(1916.212029 -37.02430528 -17.77348474)
(1891.49217 -12.67623255 28.2002483)
(1878.582156 18.41809 29.49812328)
(1900.962569 4.269998742 3.839851853)
(1908.282926 -14.96734435 20.35244571)
(1914.502343 20.44464478 -12.58903143)
(1927.339789 -4.986604629 -3.565171244)
(1930.548454 -7.766853151 -21.73342103)
(1952.561385 15.98160038 -16.06457)
(1931.012619 6.933570943 -46.2303051)
(1902.060279 -2.669451269 -18.81035134)
(1908.565467 8.254855067 14.73355669)
(1934.349266 30.37363643 1.367874339)
(1946.008719 30.96866774 -38.79160076)
(1916.100878 58.3946463 4.668648549)
(1943.854325 31.7810111 -9.461131449)
(1954.020377 1.558389135 5.301716837)
(1951.905137 -34.56837675 -12.35232496)
(1940.822301 -22.95214081 -32.94064878)
(1941.036908 2.677130114 -52.66323324)
(1925.545714 5.624233627 -25.06182286)
(1918.013418 -26.54282062 -49.33421768)
(1901.956914 0.3932396886 -4.379973137)
(1931.210621 12.86392753 -29.68594266)
(1929.810074 18.75816228 -27.2657517)
(1924.660618 19.74929929 -33.1363802)
(1913.593024 16.93087462 -29.54077889)
(1890.711051 -13.69738087 -42.32403642)
(1888.226274 -45.20548986 -7.78530323)
(1883.880065 -31.92380939 6.020912918)
(1890.009127 -42.16508514 30.98147269)
(1879.071395 -5.776350297 25.5801433)
(1934.541585 8.646652351 20.91731999)
(1925.263937 -1.048641752 29.64795305)
(1949.802409 -22.61495124 20.58471804)
(1947.569264 4.224903364 11.57117926)
(1968.802327 20.7904204 -9.654943354)
(1972.846433 18.0143884 -15.7505027)
(1975.221352 21.68288368 -20.51861333)
(1964.60125 -2.913347864 -8.680070622)
(1962.429548 -19.33339362 -19.03560562)
(1946.576487 -16.27751038 0.657240343)
(1931.773212 -10.55047313 -20.5745022)
(1922.960323 -3.390273171 -23.28959282)
(1908.207658 10.92801699 -18.69767782)
(1910.738795 50.52804628 -50.78821908)
(1905.953664 45.65339096 -33.69195507)
(1896.993907 54.55668476 -7.974452881)
(1915.897314 38.32747703 23.40648337)
(1933.307369 -8.174912493 22.65531161)
(1935.70565 -16.82986339 4.976506463)
(1929.365068 -16.83870833 2.890355743)
(1942.719663 -10.65291961 39.824875)
(1936.8152 -17.74400973 -3.536245288)
(1937.862364 -33.27617976 9.559535092)
(1976.760598 -9.958062801 4.920962382)
(1975.4449 -5.570053231 34.09565455)
(1960.306642 1.824869648 11.58186227)
(1971.122038 16.84272917 -14.50315739)
(1948.631173 14.47694726 6.147354022)
(1939.944733 -24.83748565 -3.060912788)
(1970.43165 -20.65454908 -18.52283546)
(1963.47063 4.374531609 -38.84499347)
(1969.812624 0.2169260837 -27.62092281)
(1965.892206 -15.36052874 -35.17426818)
(1969.981987 -15.62703034 -34.22984007)
(1956.735324 -15.62863495 -14.92730472)
(1941.381511 7.268112187 -26.97571582)
(1915.105279 31.97176564 -13.50044074)
(1901.220575 30.35976526 13.43651313)
(1926.146309 16.68163687 32.96953611)
(1955.957642 -7.435328011 39.75549243)
(1955.15285 -17.12172084 -31.03648662)
(1931.156803 2.763392735 -46.86827394)
(1885.034784 1.613357324 -7.86263471)
(1891.293144 14.9098942 0.5123437748)
(1922.782566 -3.648612337 -8.811634437)
(1919.514235 -18.56644271 15.21527085)
(1945.456887 -59.1495852 27.4375807)
(1967.276622 -43.1692611 32.38601052)
(1957.360958 -13.30603935 30.2949231)
(1950.082523 30.90310189 -3.463823175)
(1950.245452 33.95588812 35.93652237)
(1956.846017 38.19008815 45.99123512)
(1950.035034 40.6153963 14.99638953)
(1962.288972 12.53191589 45.20809114)
(1962.616977 24.93417546 1.162172838)
(1984.056516 -26.05114435 -9.220429226)
(1959.615154 -48.73111083 -18.80694572)
(1943.909872 -49.6464539 11.33299575)
(1949.227681 -45.08940745 4.422342895)
(1987.211357 -4.286529639 -3.482974639)
(1988.60118 23.11413651 -24.35521296)
(1949.103722 -17.28744166 16.8801436)
(1969.358436 -8.392731418 55.87873638)
(1925.314172 -32.19325924 32.7878554)
(1918.818464 -16.46437647 -7.894943355)
(1919.071486 -38.0772139 -36.61119266)
(1917.864234 -1.117459254 8.715637037)
(1944.279331 -6.919132336 15.86188747)
(1925.857598 -6.14049983 15.65232904)
(1939.656296 -39.07442558 10.51164819)
(1957.997914 -45.20014411 38.73129263)
(1957.964424 -25.07210859 18.07676595)
(1941.290051 -31.54975518 9.100551271)
(1906.731936 -10.70462833 3.960493991)
(1915.169238 14.38742921 17.70483317)
(1953.069767 33.08335781 11.71956981)
(1922.96163 44.8957701 -6.791454469)
(1972.630451 29.2807395 -10.8454883)
(1988.623058 60.67600679 -22.68640838)
(1976.20318 45.22917478 -31.89349508)
(1944.29731 -1.224741892 10.26176103)
(1955.661729 -31.05106412 26.78500951)
(1946.937891 -24.09355218 -23.127994)
(1962.420513 -32.45000323 -19.99404374)
(1976.318625 -34.15982523 17.38809107)
(2000.111827 -42.1489352 10.86939956)
(1989.098792 11.09260934 7.287205046)
(1923.196061 -27.75752185 5.793221696)
(1930.343394 -20.40620273 -10.49198763)
(1911.013192 17.94185581 -13.14913306)
(1898.53206 26.46990131 -12.14258812)
(1930.333186 28.93624026 -29.63466757)
(1925.532362 18.36115709 -78.91107452)
(1936.094343 37.30565031 -66.30328681)
(1911.771261 2.790802828 -33.87431553)
(1928.329166 16.30412214 -11.20138277)
(1966.528619 24.07267751 -8.061849611)
(1949.060486 31.30678788 8.25111419)
(1933.717941 39.11886726 6.556838556)
(1934.635092 11.78317886 3.156330634)
(1937.660977 -6.844723204 66.1194267)
(1954.410793 -23.63983914 18.71325788)
(1946.113461 6.305378592 3.933444105)
(1977.089179 13.19718684 -33.04361252)
(1970.527557 -8.143984567 -18.83436417)
(1953.860178 4.935487641 2.811768242)
(1934.462441 23.60754013 14.40469762)
(1936.106563 -6.08672998 27.62918236)
(1906.261367 -14.95564128 32.03609272)
(1911.923278 -71.31965345 28.03289798)
(1933.085134 -52.46042003 -18.20009478)
(1955.392719 -16.33250684 -5.927901384)
(1960.539667 39.00524248 -16.44461169)
(1923.924732 28.21455178 12.70784737)
(1927.176094 8.142937156 -13.25336484)
(1946.111231 -9.935030047 -30.78671512)
(1924.681155 -27.58554737 -6.349373853)
(1916.399254 -36.99199437 21.19001422)
(1935.748668 -45.60876472 53.49667792)
(1951.422767 -17.45734605 67.21995576)
(1998.846864 39.2577872 38.76397872)
(1988.437139 52.03029046 39.24119922)
(1977.398123 21.86114468 -4.772294535)
(1958.009254 -2.207806943 -11.12389919)
(1934.772262 -22.64126594 -1.833055112)
(1966.764351 -28.57486496 9.242292448)
(1979.656177 -27.47342398 -2.944286519)
(1978.754244 -29.63046969 -32.16897475)
(1985.686923 -21.07735336 -8.357612055)
(1965.287763 9.375514688 12.57983574)
(1966.13632 31.7709014 20.38904137)
(1955.274196 13.78787455 -33.40323666)
(1972.941221 -1.964113155 -41.63188345)
(1999.624141 -11.22449643 -18.03786383)
(1993.815106 10.0808985 2.258125298)
(2008.114389 10.17153035 -2.851237987)
(1988.247606 22.2143003 16.66047655)
(1983.618553 12.94841896 20.42913438)
(1990.528766 48.51422331 35.68754851)
(1988.92799 54.07171686 4.662945742)
(1955.507998 33.69906484 -31.59885816)
(1927.035163 -22.14307369 -57.81948948)
(1934.190961 -48.74452564 -29.85732696)
(1952.934892 -22.36856137 -48.20459387)
(1945.728264 -15.84306354 -29.69296396)
(1944.395003 35.66299974 -38.49105986)
(1928.390256 13.74275319 -34.56340225)
(1904.434729 19.31406352 -1.289242661)
(1900.690377 -4.10530612 -2.118188579)
(1942.524507 -24.72674192 -1.155017043)
(1947.372438 -33.69564509 -9.023541343)
(1961.832067 -24.70303833 -15.88528374)
(1988.198349 -15.80561784 -17.68929812)
(1995.715312 -22.49623184 -33.24216224)
(2012.728081 -46.61948796 1.99627988)
(1976.529106 -17.06041684 -18.78346953)
(1958.82897 -19.19790723 -37.99819041)
(1970.214098 0.1632453732 -41.01647046)
(1962.85647 13.44008738 -35.31625067)
(1972.799408 34.09823305 -22.9864005)
(1968.358361 2.078171021 7.263297605)
(1947.560027 -7.427378254 2.175886164)
(1962.143999 -44.66085352 7.925143607)
(1988.516826 -55.4455965 9.015462805)
(1981.975028 -10.5775156 -24.13124201)
(1956.995708 -8.806919568 -15.10774779)
(1960.29073 6.52744748 -67.35436395)
(1957.485694 12.2520456 -64.2451968)
(1965.705772 22.78029353 -27.8581325)
(1968.024055 -15.36991881 -26.14234992)
(1933.858386 -27.3573001 -14.99989962)
(1961.747162 -4.86226946 -22.57221155)
(1934.008553 0.606828415 19.13968807)
(1934.773192 -0.9447769193 3.605787871)
(1921.536038 15.72082465 10.19062801)
(1923.505908 14.33585226 -9.30924197)
(1941.948914 21.89954099 -11.93047479)
(1955.680671 30.01295997 -42.83644717)
(1969.25122 15.84244928 -27.69200144)
(1968.24352 12.71144173 -37.27114647)
(1959.428735 14.33888243 6.194834917)
(1951.213648 17.38989086 42.75278149)
(1934.59208 -15.88172834 51.37037935)
(1916.58839 24.15394767 22.52570233)
(1937.889906 16.96831353 -2.107445168)
(1943.239507 -22.69607691 -20.44324377)
(1933.810705 -6.429516236 -45.12456526)
(1938.615316 -16.88331075 -36.0905235)
(1929.452815 21.14656706 -31.97614395)
(1949.197266 38.36443197 -24.03498886)
(1936.829086 59.62788629 1.938279314)
(1903.021695 39.00276638 -8.611802358)
(1904.683901 19.57994431 -3.040983791)
(1931.407632 -4.11984368 -35.04673524)
(1927.380002 25.19542115 -10.23071174)
(1906.480272 24.30638835 -1.791018375)
(1917.65352 27.63688098 18.71348921)
(1907.352392 14.78322888 32.504316)
(1928.256739 9.53861671 22.11037913)
(1959.01213 -0.9437709156 3.935478541)
(1932.043441 13.29969715 0.247332626)
(1912.990721 18.5902262 32.2843279)
(1911.323242 33.80296068 10.45781549)
(1907.465022 25.37620715 1.602250494)
(1933.992745 54.09804346 7.046879532)
(1986.077634 59.25195651 -17.35737582)
(1955.762484 33.45183276 -16.88610099)
(1916.423929 7.170869755 21.37860047)
(1941.798641 -13.61647451 3.706182806)
(1916.512755 9.999087152 -7.218570445)
(1924.317679 30.17596381 -28.07141848)
(1941.08718 32.01453996 -26.79487873)
(1953.290505 -2.371460897 -10.98891863)
(1962.727706 30.1150183 -35.29590116)
(1965.372515 17.6984805 8.310244948)
(1946.426566 41.81551846 -13.8608378)
(1943.884966 63.22191172 -59.40575534)
(1960.322811 21.87835262 -42.6373861)
(1959.905741 45.89956179 -33.14871168)
(1943.757279 54.08562243 -2.009494678)
(1950.845931 14.25719521 -8.399547463)
(1961.383883 -4.054374097 -21.30858093)
(1943.513496 14.40773221 -3.961896932)
(1939.598352 34.77032825 17.15432814)
(1931.792392 32.52577044 17.28462682)
(1927.969637 18.61245022 1.212472791)
(1910.76637 24.19746874 5.587588746)
(1925.050146 4.592506515 5.88432195)
(1931.612865 -25.84841 -8.791288259)
(1948.532045 -31.35843014 23.6550048)
(1954.75284 -24.68118013 39.03148278)
(1963.592868 -12.09296525 22.89479411)
(1952.94762 -16.24317336 19.86396239)
(1932.302982 7.62726373 -16.12249923)
(1928.066212 -5.103331342 -35.97511763)
(1943.822882 16.00808707 -5.841351798)
(1950.541758 12.95873774 -10.88389116)
(1954.782964 -0.8121035971 -28.67931928)
(1940.780516 13.77983327 -9.240070409)
(1915.694967 -10.70025581 -7.698120336)
(2000.318313 28.27924601 29.75142744)
(1979.443101 34.57412705 6.007517995)
(1974.867398 18.58247513 5.842854076)
(1965.801538 32.05208814 -3.377035981)
(1950.580978 25.85041437 7.247920371)
(1931.996501 18.10259629 -11.52008166)
(1945.752245 12.45217022 -27.08229805)
(1955.417251 -4.452623928 11.22857802)
(1949.981206 -2.143615854 5.070270456)
(1917.609694 7.901707582 16.45409345)
(1924.366087 -21.93812918 18.7550541)
(1962.06161 24.74960121 -2.730738784)
(1960.720845 21.59779555 3.736250097)
(1949.021582 -28.25787985 29.89656632)
(1955.385271 -0.7140666747 24.59427687)
(1946.46993 1.772592647 25.92923906)
(1959.78016 -3.157613452 -2.76969941)
(1967.760507 -3.708811736 -5.296901583)
(1983.755621 -1.773600652 2.970443991)
(1996.330607 -13.40097291 6.619007689)
(1969.791301 10.86345559 23.92311779)
(1974.995066 33.07994653 26.87756748)
(1961.747847 34.13358574 56.46737648)
(1954.013548 11.55962041 59.75563499)
(1952.502585 -3.661163471 33.77286271)
(1968.586568 -1.475058725 -5.514440321)
(1967.262992 -4.520375547 -13.74548643)
(1968.069521 12.88067478 -34.09158416)
(1969.111474 8.051561692 -9.068114505)
(1984.216333 10.1690392 -16.37387599)
(1966.862293 20.86384002 -20.00892579)
(1945.321745 13.47440238 -37.28043798)
(1936.199684 -0.96797492 -33.09679856)
(1917.156025 22.78413028 -1.661052549)
(1927.358661 0.9728123313 -1.985061244)
(1923.176925 7.982208845 14.7611808)
(1912.275048 -4.841389318 20.173146)
(1943.362948 7.482912477 -13.9416375)
(1963.615066 16.40029377 -23.02156405)
(1980.460431 7.381949682 -4.398594179)
(1926.427325 0.8935069914 8.469955918)
(1918.945112 -50.12283149 28.18080092)
(1941.131355 -45.19089243 31.63092466)
(1964.532833 -26.73636721 12.90609759)
(1959.167991 -38.92443066 -11.9385192)
(1957.412684 -34.30872387 -2.86151769)
(1976.380699 4.435804451 -20.20207232)
(2002.365251 31.76729701 10.73527588)
(1978.954106 63.8877413 33.34536867)
(1995.938076 69.4275688 13.76421525)
(1989.318307 21.88932271 34.09212111)
(1978.299749 -3.852929998 24.98232682)
(1972.979396 6.402328867 13.54069854)
(1962.835993 4.428401164 13.15667451)
(1967.62815 6.954258357 -5.7724063)
(1935.757909 11.35581511 0.4730202322)
(1951.06332 13.51308897 0.7088141384)
(1938.130173 18.34286012 -1.374433476)
(1959.366227 18.92319781 7.60443087)
(1928.039487 3.304596645 21.59370459)
(1932.257141 27.20723479 -28.89100038)
(1942.590251 42.9317253 -34.31743906)
(1953.944071 8.141183005 -50.93814044)
(1961.515149 9.481078478 -17.5625954)
(1931.268772 17.47253735 -20.5291365)
(1918.679982 29.48616632 -44.58705481)
(1946.494671 57.10443778 -32.3425562)
(1957.175963 37.09990366 -49.71388576)
(1954.316642 46.41711042 -17.60300147)
(1955.058809 29.99832443 12.48332488)
(1947.518352 37.69805452 -0.5343879445)
(1926.077005 1.996884097 15.79025766)
(1915.679003 30.74706554 41.09873475)
(1920.048759 -8.176422812 10.90294578)
(1945.688759 -5.918433422 20.78382457)
(1916.723619 -48.09934553 2.141463758)
(1905.96057 -55.55365065 -8.010661378)
(1939.905856 -7.021883112 -27.80460505)
(1913.462129 -15.53270868 -35.14814629)
(1929.504673 46.02744931 -59.9305151)
(1949.220778 -19.91187467 -5.582924333)
(1950.355434 -10.04421495 -20.1689582)
(1935.13771 -17.53019189 -33.65529539)
(1915.949082 -46.90913153 -46.62089667)
(1940.839122 -28.96450872 -41.41223222)
(1945.376147 -23.49136531 -30.38359764)
(1969.70451 -16.74481261 -20.22405807)
(1954.606248 -15.81938209 -5.186290753)
(1943.224363 15.4192355 21.03436215)
(1945.486838 19.78922427 -14.32946878)
(1954.754642 39.37986404 -23.46965975)
(1936.184477 39.87635407 -27.69825924)
(1958.832524 28.72289295 2.558587482)
(1962.381012 -15.5682253 33.88174361)
(1975.054711 5.77990213 25.61952832)
(1977.870455 11.85093078 34.28371009)
(1998.682571 -2.947016551 28.48847329)
(1980.815384 -1.02261291 16.12737888)
(1974.85673 22.91222385 -11.25895366)
(1955.243095 15.32434167 -2.330498775)
(1914.505969 5.927174018 52.76173665)
(1914.119493 -16.67961228 52.86888584)
(1932.231094 1.078096219 44.22448484)
(1944.744803 -0.4588126089 9.676888757)
(1953.520046 -14.03874694 -27.70580761)
(1959.51261 -12.08757292 -21.75235082)
(1951.838992 -15.47310545 -32.6332583)
(1971.186803 5.691162183 -52.39668234)
(1962.628905 -0.7482176487 -68.63091624)
(1975.930038 0.6605227159 -55.08321155)
(1949.167803 -9.076575468 -29.60275271)
(1962.70622 0.7090763808 -7.579880282)
(1943.472598 -1.514537401 7.693620419)
(1940.172978 39.83332987 3.230643382)
(1945.814741 48.73469518 -10.75177759)
(1956.79312 19.46804715 -20.98348678)
(1963.474402 21.0460198 -7.997952393)
(1955.745532 19.3376837 3.857251276)
(1917.117053 38.21135543 -3.856123688)
(1910.781057 14.556786 44.3777)
(1963.42949 -4.286911153 -20.84298429)
(1975.815018 -16.63200348 -22.83283152)
(1983.463541 -2.281294317 -36.88166728)
(1990.101304 10.42559756 -13.17042154)
(1989.198713 15.48467973 1.625858707)
(1992.026104 27.05589804 35.50002585)
(1989.280849 54.67885435 41.37942795)
(1985.164155 17.7367123 15.07930189)
(1995.861072 25.60682801 16.6577314)
(1992.736922 9.117012217 40.16293982)
(1968.285433 6.252966415 35.48458193)
(1935.048529 -15.0564983 6.439537182)
(1942.68858 -22.07900249 10.95451231)
(1957.232047 -14.76835033 -21.54341871)
(1954.209886 6.063938318 0.3835212753)
(1935.734964 14.89934386 11.66680649)
(1922.762908 5.11431621 27.80890746)
(1919.485681 -3.834725203 13.31112296)
(1933.188289 -44.31745454 29.04548907)
(1947.914845 -33.4227618 -3.107706723)
(1978.261515 -1.964192374 48.49028541)
(2001.355571 28.16940564 32.77844478)
(1979.929067 16.46022856 1.716765561)
(1989.102177 28.59937647 -12.8011355)
(1926.300533 29.40978136 -0.5711657553)
(1921.845606 55.10724833 23.84016652)
(1923.673108 35.48545339 3.657250362)
(1908.193703 56.21927801 -25.71416918)
(1934.393761 29.99907851 -51.39296439)
(1939.608842 0.3244150958 -36.89113018)
(1920.573756 31.9777766 -18.95914112)
(1909.940873 26.94155586 -4.680105359)
(1916.333255 27.38114466 -11.40883211)
(1978.198139 5.596517588 -6.63629642)
(1982.830509 6.071342258 2.479373326)
(1948.735276 -4.490163464 38.33301046)
(1980.929976 -10.102275 13.66943091)
(1955.374261 -12.06469971 45.37724731)
(1958.044349 -15.46074666 31.76536842)
(1978.551103 3.035651152 28.88527078)
(1888.495755 -2.369940082 3.47137013)
(1912.387293 3.010585043 12.34270867)
(1929.076523 -42.21752531 -3.331637733)
(1925.053681 -43.05845757 -1.698205054)
(1947.609097 -21.85242509 9.7978114)
(1949.788869 -37.8103769 -4.394067171)
(1971.996056 -38.33441507 -2.061223798)
(1981.97438 -15.53760986 -11.71033323)
(1940.216136 4.506847713 -30.21288536)
(1923.971576 20.18191218 -21.44138208)
(1919.880259 9.958152659 -27.37884509)
(1912.331464 8.059821233 -3.141408469)
(1901.802028 4.175657106 20.2760595)
(1890.380529 23.16286805 23.99398422)
(1889.031978 9.690755042 -9.690858475)
(1890.132621 -1.104417468 0.3245435378)
(1870.168958 -9.090082615 25.04516069)
(1882.417943 35.03068923 -6.970847988)
(1887.351021 62.25672569 -19.50824446)
(1893.542514 30.32645451 5.583363984)
(1933.685692 -13.6200781 8.122410738)
(1957.669017 12.52815939 34.60999484)
(1956.341362 28.77244964 28.45206949)
(1952.278428 -5.908309044 10.89951546)
(1934.521592 3.140331161 17.00313497)
(1913.598708 -0.4495023902 7.987310927)
(1901.32346 -3.151063732 0.4647586332)
(1927.604943 -7.710581225 3.691373652)
(1979.744756 -14.80815239 17.9986989)
(1956.65171 -1.940348559 26.33338713)
(1944.912397 10.70208605 -8.509120844)
(1922.626227 -5.730919507 15.55170247)
(1914.026511 14.25943608 10.39133731)
(1942.597995 50.5336522 -0.01233694481)
(1977.044047 46.84586692 36.28943911)
(1973.929442 49.10441005 55.6820411)
(1953.526099 35.20647109 23.23508195)
(1929.59212 20.21912311 -8.498231647)
(1945.869181 -0.1000810125 -10.33490094)
(1909.93394 -0.9720899635 4.342776555)
(1934.371325 8.36708172 -16.41796002)
(1919.90279 16.466106 -9.42274195)
(1943.485239 0.8609786778 16.82151882)
(1953.618611 8.047935331 62.60611712)
(1974.269363 -20.07489021 42.613133)
(2008.71059 -25.01765808 14.29478965)
(1998.749463 -7.537572854 10.04538395)
(1963.142609 -6.228268062 15.17178599)
(1940.961784 3.060460163 0.815860738)
(1963.315197 15.76451941 -37.53836178)
(1957.532554 -19.48282961 -11.37985804)
(1941.793535 3.808042394 21.67876997)
(1957.19525 -4.830582442 18.24593407)
(1953.340368 6.545691395 -9.520907391)
(1947.416123 -13.84706414 -19.9397676)
(1944.206932 2.851389491 -1.568665571)
(1950.644861 -1.064971929 4.785690974)
(1988.280378 11.00795669 4.359606153)
(1971.576577 18.02623334 -0.8302612502)
(1972.401912 11.82644602 -18.79839983)
(2000.940748 15.54735022 11.33117804)
(1981.448075 12.11184007 -7.04597775)
(1972.734826 19.23831584 -3.930995992)
(1951.988561 36.12991923 -49.53604697)
(1941.811173 67.69665956 -24.359407)
(1934.195356 61.60424564 27.9700814)
(1928.004441 36.1524614 35.0873904)
(1958.438654 6.915961177 12.34281685)
(1956.141113 -6.30307362 15.52091015)
(1969.753691 0.6278330553 -37.33657109)
(1994.907932 19.86273125 -48.23101358)
(1964.553177 3.050068533 -61.49033802)
(1952.297766 11.15127824 -53.46390601)
(1968.997512 24.50861107 -52.43433883)
(1967.587942 76.68003895 -54.92997951)
(1969.935418 73.20406381 -54.4284929)
(1987.536554 79.36940057 -31.44616139)
(2002.292305 34.90347456 -45.23409045)
(2028.717689 1.626125288 -19.13719039)
(2008.569482 -12.20882802 -20.71019635)
(1947.304466 15.56764108 -23.51201941)
(1975.242546 -5.435920784 -20.4378715)
(1964.3939 20.99582514 -13.14802637)
(1973.180383 44.69254709 18.48864526)
(1967.473926 49.93928847 13.13225138)
(1930.309674 13.8529947 -17.54183371)
(1936.773168 42.18138486 -30.34734185)
(1949.050189 37.53792614 -26.62405076)
(1989.055949 41.21676063 -47.21435021)
(2005.644458 47.35389924 -50.97303544)
(1997.436756 32.76471384 -0.07073349737)
(1985.886184 16.31228548 10.9205643)
(1975.459982 22.38430753 -20.3515631)
(1985.911855 16.58201964 -24.44243595)
(1987.710076 7.132524345 -37.90298848)
(1987.697481 -36.13226928 -29.89458782)
(1984.996369 -32.35241375 -42.63374947)
(1973.184964 10.93041101 -24.47729853)
(1963.992944 32.99419954 15.26733093)
(1950.068601 43.68495956 19.83755003)
(1939.976782 -4.693537521 -5.907935848)
(1952.500802 13.83610783 -31.13430623)
(1940.393049 15.1348886 -47.33408046)
(1971.598909 -2.945297134 -53.59398536)
(1972.978351 -15.14620692 -35.30067822)
(1956.187054 30.37376418 6.931973539)
(1968.886342 43.11940674 18.26240263)
(1944.565276 49.67593197 -13.10291123)
(1939.182488 37.41248863 -47.74836906)
(1931.795046 15.79198074 -34.53139576)
(1916.607491 -3.008730419 -43.66730063)
(1931.470525 -2.606270094 -13.70256121)
(1935.03874 -17.64239102 -8.623332003)
(1957.951876 32.33942423 -5.868586748)
(1974.574489 16.96433386 -0.2036467142)
(1984.69896 31.34462327 2.711879512)
(1975.992604 32.95385606 12.9025257)
(1976.743196 38.58682954 15.76805414)
(1974.382518 12.24122297 1.393149905)
(1952.46531 2.638518496 16.01692503)
(1978.456033 6.406042884 -14.06852384)
(1983.169774 7.079354089 4.966398177)
(1965.359613 30.07681768 -12.26522521)
(1953.286607 45.9055833 16.13577779)
(1946.369889 31.70147179 30.93350534)
(1964.669233 54.04547265 28.53395817)
(1968.010888 23.92244553 5.649371422)
(1964.302857 20.24209388 -24.9435377)
(1973.189096 18.03150788 -29.62427171)
(1968.752802 32.59858788 -20.05674949)
(1973.864007 44.11468129 0.1121403984)
(1978.702037 40.2390277 -30.74980938)
(1967.317098 29.10206776 -15.62111119)
(1944.277365 3.642369652 0.8175065217)