/*--------------------------------*- C++ -*----------------------------------*\
| =========                 |                                                 |
| \\      /  F ield         | OpenFOAM: The Open Source CFD Toolbox           |
|  \\    /   O peration     | Version:  2.4.0-MNF                             |
|   \\  /    A nd           | Web:      www.OpenFOAM.org                      |
|    \\/     M anipulation  |                                                 |
\*---------------------------------------------------------------------------*/
FoamFile
{
    version     2.0;
    format      ascii;
    class       volVectorField;
    location    "0.0008";
    object      UMean_N2;
}
// * * * * * * * * * * * * * * * * * * * * * * * * * * * * * * * * * * * * * //

dimensions      [0 1 -1 0 0 0 0];

internalField   nonuniform List<vector> 
5120
(
(1972.888319 21.83765278 -16.26078609)
(1957.596159 13.21020078 -21.122354)
(1970.298512 20.67220042 -24.18265298)
(1970.776495 33.10039184 -12.72373632)
(1958.71165 18.08549107 -11.25138689)
(1945.638584 12.19657598 14.83341882)
(1938.920833 11.40433147 -3.413006784)
(1949.185344 2.686893853 -2.352666535)
(1957.544065 -8.172712017 0.0242106607)
(1959.419305 -15.89838739 -8.63688819)
(1967.381276 6.474178592 -11.34315701)
(1972.370985 9.232190449 4.313623411)
(1950.573835 10.4804547 1.880344228)
(1939.221801 8.24837829 -11.24028779)
(1944.432014 18.95983625 8.14912089)
(1951.983246 16.91658063 -14.94203984)
(1955.041986 16.30755067 -21.60581695)
(1956.983406 11.07474262 -35.76961927)
(1959.24548 16.89522761 -14.21266815)
(1963.263032 17.43683928 -11.93961474)
(1958.821716 31.97024091 12.91617629)
(1960.71663 25.04571133 27.87399061)
(1956.025379 13.55033509 31.89042402)
(1964.486377 -12.35501248 13.49102355)
(1970.919877 -17.30466564 16.20856361)
(1974.32614 -2.396723863 12.09101802)
(1978.100847 -7.780677909 2.648266565)
(1962.329461 -8.487505202 -8.941416601)
(1964.653966 -1.573972913 -11.08296518)
(1967.507235 12.16215388 19.67466525)
(1966.068707 6.295645865 26.29187516)
(1957.647648 8.553251265 25.08921981)
(1975.388324 2.780876485 36.3664554)
(1977.742903 11.2105772 25.8687899)
(1963.944097 0.3273299019 8.870093225)
(1946.826872 -5.392334155 22.23411058)
(1948.772676 8.050966715 19.99846685)
(1962.786025 19.2459045 39.27215578)
(1946.229779 22.10265714 19.2276639)
(1946.785597 24.57499507 22.05063777)
(1949.832523 -16.66963011 10.57626105)
(1944.728121 -19.68614485 9.995863061)
(1945.716673 -2.713742791 -2.073197007)
(1941.662102 -5.011272558 -19.06065017)
(1926.362955 0.2788914597 -14.78027965)
(1918.10932 10.32991374 -13.09257538)
(1931.273162 1.813229245 1.092272603)
(1946.222848 1.550305569 17.67899532)
(1951.536458 6.375968151 5.581504949)
(1932.596953 0.7350263617 -2.733118464)
(1941.536177 -0.3424077094 6.946890297)
(1945.842046 -4.11527496 2.896794782)
(1961.419918 -3.059491503 -4.330832662)
(1943.963451 -15.60151093 7.739459449)
(1962.58554 -6.424874444 23.85130911)
(1963.083352 7.123172148 11.80530302)
(1955.699657 -9.22800229 2.003692244)
(1946.857765 -13.45945909 7.522346118)
(1948.323934 1.584570986 6.683149846)
(1960.589177 2.029558566 3.041751755)
(1953.077638 -23.9838435 -2.346734235)
(1950.571738 -24.72676554 -0.4401896788)
(1959.764973 -21.74556117 5.857947601)
(1946.747025 13.9619992 3.898733871)
(1940.231302 13.14011165 13.91718581)
(1943.962533 0.5871739936 -4.472209317)
(1949.886219 0.4786517575 7.829930125)
(1931.027219 -8.062945944 -20.78521781)
(1943.850145 -16.04018703 -12.57388626)
(1962.89986 -0.1537913781 -8.862615469)
(1956.731814 -6.537195347 0.7308428162)
(1968.990461 7.890605929 3.439599514)
(1958.069382 6.512940195 9.005760825)
(1960.468438 -4.02067237 -3.176012786)
(1959.787624 -17.73190151 7.507440543)
(1969.773187 -23.64585982 -1.23017704)
(1961.203991 0.141980237 -1.808365556)
(1948.044153 -1.158812005 -8.55383909)
(1964.658341 -7.220821724 -12.29953737)
(1955.318829 -0.7336661721 -1.70819729)
(1935.900436 -16.64953099 23.74965744)
(1916.122081 -12.82521375 9.506388332)
(1919.028278 -2.240313441 -9.299979061)
(1930.980823 -35.18922833 -13.65250445)
(1946.386176 -31.96426429 -23.87313639)
(1940.095904 2.175743401 -11.87295481)
(1940.757257 1.924956187 6.302328849)
(1935.774493 16.2701238 18.11727021)
(1951.092079 9.896841909 11.74097419)
(1954.894761 7.938662306 7.176233142)
(1965.146904 19.25058247 8.974749808)
(1944.653959 13.18751236 -2.867440286)
(1952.315105 1.452511782 22.74145209)
(1967.162632 25.33074759 29.95688479)
(1958.248818 31.28590346 40.79925981)
(1954.844267 13.47732142 42.43157399)
(1944.819114 -5.084916098 33.71658636)
(1962.874656 12.33763367 9.112913727)
(1936.146404 4.450604234 -2.600060307)
(1934.739457 -16.80792091 0.2337934805)
(1947.637501 -7.452324865 18.29202738)
(1960.842335 -12.16665105 7.562973833)
(1952.695623 -36.38453324 -6.979239869)
(1940.522801 -19.19544407 -20.85664521)
(1948.472941 -4.362763634 -33.26586615)
(1961.842145 -2.577314702 -23.77601583)
(1953.019044 -17.08998172 -24.10497418)
(1954.489714 -21.79058166 -20.88288537)
(1946.560987 -10.8927851 0.3871151305)
(1960.280187 -4.429467186 9.137036318)
(1956.64112 6.848596782 17.79936823)
(1956.402202 11.36505396 -5.107427403)
(1958.835105 15.1206496 -5.399105205)
(1939.845913 -8.155749968 5.0458241)
(1944.497616 -22.18921049 -6.909208319)
(1970.217644 -29.60256801 -29.36345017)
(1985.55464 -10.63894453 -26.98767066)
(1970.177113 -8.629840893 -14.42949017)
(1971.067098 -3.913929852 -1.176804558)
(1942.724725 2.123890026 11.23855062)
(1957.359951 -24.19688328 16.01901951)
(1959.934401 -1.078008675 4.883882494)
(1960.340338 -2.606208595 16.30580362)
(1967.491631 0.6265066144 24.77085442)
(1947.281879 2.374018966 22.62032313)
(1931.486223 -1.12122475 4.829922885)
(1930.298868 -23.36376665 -0.7959679769)
(1936.639517 -24.15441919 -9.362883098)
(1941.960653 -27.46281227 -4.713472003)
(1940.652375 1.975641071 -4.898393264)
(1947.11444 -2.023528056 2.137768186)
(1949.215353 4.350148176 2.031682583)
(1939.36637 -2.410557356 -1.209912294)
(1949.665998 -3.969934766 -1.694516531)
(1957.516492 5.30477188 4.983188844)
(1951.068624 -4.488379116 7.018286186)
(1953.413456 -15.17228632 -14.9018596)
(1956.694418 -12.86642557 -11.2901905)
(1955.553053 -15.51678107 -7.692604662)
(1969.086147 -26.29121542 3.060986334)
(1977.982671 1.439669027 13.91721535)
(1975.696583 -5.536882982 -14.36245506)
(1973.752013 -3.863069729 -0.5083882596)
(1958.428823 -17.8826223 -10.31745574)
(1965.940003 -28.14953999 -12.84024827)
(1953.288095 -26.24917647 -12.84269409)
(1944.852513 -26.59522873 10.09014848)
(1954.711944 -20.60995295 18.59743226)
(1967.082693 -11.5684257 29.91628233)
(1969.671364 1.291114003 16.17485462)
(1969.830345 9.799755348 9.073679409)
(1970.293669 21.28884111 17.98454518)
(1976.539906 15.7259412 18.21569353)
(1956.774453 0.7321233855 20.05035709)
(1962.551854 -6.738616272 -1.22218554)
(1950.383476 8.906918276 3.01512324)
(1956.700194 17.0211696 26.90525004)
(1949.518372 7.954949122 20.47215871)
(1957.085244 -18.72388255 20.46772041)
(1975.526597 -21.66049419 18.90763505)
(1953.495124 -4.612697561 7.389739663)
(1949.871641 0.382382226 24.67023642)
(1944.178132 -4.048016546 17.20870349)
(1941.713879 -15.79364626 21.7631894)
(1929.786153 -10.90218968 31.62202516)
(1934.573844 -18.13546153 28.72722098)
(1958.064882 1.457510203 -5.138931504)
(1929.744596 0.6429729812 -9.427086338)
(1909.568824 -14.6668887 -7.238127609)
(1915.550113 -26.73637732 2.43777367)
(1949.601329 -40.58448469 7.746452497)
(1937.68865 -27.0042362 14.13298275)
(1952.642971 -34.11645272 -2.077010291)
(1956.404918 -11.65281063 -24.25541028)
(1945.649648 -3.722731157 -16.14328802)
(1952.442278 7.671419594 6.532456385)
(1957.681663 -17.82856512 12.76512784)
(1957.824259 -18.83917345 16.2911186)
(1956.125952 -15.0320983 6.061831504)
(1956.136492 -3.209983044 11.89165448)
(1948.14813 -34.72388607 27.02076067)
(1962.972429 -9.3517722 4.742227818)
(1945.392906 -12.94706176 23.27127044)
(1960.30762 -24.08146706 21.73506781)
(1960.25797 -14.77714833 -2.920514708)
(1951.523518 11.42748212 -13.56761532)
(1943.560396 -1.591925492 -10.38825741)
(1938.99951 -2.104807527 -24.67368599)
(1939.002822 -7.408713189 -38.55816174)
(1943.981957 -4.787994606 -12.77884574)
(1953.012745 2.403165163 -1.663107065)
(1944.738862 19.68600678 3.368985165)
(1944.56401 -10.93789447 -6.692125759)
(1935.09646 -18.34268122 -7.118680012)
(1943.978659 -12.20748271 -16.02196054)
(1952.217701 -9.927065552 -3.075218714)
(1945.231939 -26.03311922 -16.08424704)
(1944.034793 -28.96234214 -24.71216771)
(1959.145921 -18.78744795 -8.694644188)
(1953.918488 -27.83995334 16.78502261)
(1926.37489 1.000967787 -0.7571130478)
(1940.791066 3.739346638 15.42696376)
(1950.601418 -4.541387462 8.327321258)
(1946.193283 3.089018608 -5.61721681)
(1946.935014 -0.5918186639 6.280676736)
(1945.803537 7.345215037 0.8501158891)
(1956.398725 2.048762202 -0.3065528644)
(1957.682497 1.064042309 12.48203204)
(1967.973391 -6.232551541 1.98822245)
(1943.995866 15.47154231 6.115336059)
(1935.274972 15.70249411 -24.61300656)
(1954.689208 -4.145172247 -19.0555247)
(1966.544928 12.9313422 9.462921059)
(1981.271956 3.549842487 4.404059189)
(1981.614987 0.9467074949 -11.27111621)
(1963.891156 2.960547762 -1.485293037)
(1944.633136 0.2075518706 -5.936318831)
(1945.677311 9.736127931 10.33953895)
(1936.629564 -6.696407012 -5.76951441)
(1934.342607 -3.074367088 -0.8959085079)
(1958.719087 7.185881544 1.391709887)
(1953.180544 20.63828147 3.127284279)
(1924.973928 25.21382528 -13.35121867)
(1919.542832 20.7549822 -0.6042651241)
(1929.324303 1.864673453 9.118551796)
(1940.685413 1.258952861 3.042415736)
(1938.144704 6.521125895 3.273561112)
(1946.290428 12.70462793 4.889977001)
(1951.086658 18.88684929 -5.415540508)
(1958.791594 21.84532621 0.2881538093)
(1958.360098 18.10544131 11.97692549)
(1966.652199 6.513088286 -14.21147929)
(1972.838805 20.06926694 -21.21342234)
(1970.367487 16.58161839 -2.117550826)
(1980.888095 18.91085817 10.86362555)
(1959.712368 12.79883486 -9.277279583)
(1956.340284 11.19451287 4.877558362)
(1968.221888 17.69339853 -0.325104628)
(1957.838716 12.69620071 -2.598846253)
(1947.916746 -0.2151859741 -18.48328154)
(1948.320182 -7.182688637 -5.453670365)
(1952.827343 -12.11278883 11.6418046)
(1960.901303 -17.55196401 7.055335638)
(1977.408641 -2.186042961 5.468673444)
(1963.016128 27.59425665 20.83550437)
(1959.886525 33.05377844 19.43530676)
(1964.613788 16.13572113 12.87000899)
(1964.06224 23.92147497 7.904233536)
(1981.650985 23.08282984 12.33993204)
(1970.725253 21.87319946 7.962836807)
(1966.48515 20.75511561 -1.659721036)
(1966.93052 21.09323374 -7.916242911)
(1952.522421 -2.016811337 -0.7132576737)
(1935.048202 3.064702865 -12.85948973)
(1948.021372 1.937082071 -12.06067036)
(1955.084124 13.61838552 -5.136441255)
(1968.677445 2.205751862 -10.42905612)
(1969.308178 8.867822597 -3.498170282)
(1955.503886 20.45810765 -4.673516038)
(1967.833371 3.598294731 15.43554024)
(1961.818405 -8.069002099 -12.59614132)
(1958.176073 -2.648460984 -10.75930326)
(1960.772498 17.80948195 -0.5371207798)
(1941.018513 7.112060458 12.9174012)
(1938.315138 12.39671824 5.961610087)
(1934.102186 13.58186417 -25.57245941)
(1936.485149 20.87966636 4.508296638)
(1941.016445 14.44600798 -5.865173796)
(1949.077956 14.47912424 -16.66177668)
(1937.690249 11.28481156 -8.910477518)
(1910.697807 6.081775126 -5.585280103)
(1917.882488 30.22582383 2.120817334)
(1926.468832 36.17349809 1.17180988)
(1938.443055 15.90279127 14.64707927)
(1950.349358 10.33740561 6.714829156)
(1957.67307 2.362058306 -23.80088059)
(1962.52727 23.01607437 -14.89399067)
(1954.222748 22.98486383 -18.38907809)
(1971.446616 -2.218971281 -31.82717015)
(1961.375177 -0.07299031881 -11.90180538)
(1949.771964 -2.704851689 -31.50497364)
(1953.300616 -1.93771776 1.996699654)
(1941.06153 5.411197397 2.024233315)
(1941.343084 5.267062895 -18.45800934)
(1953.403444 21.54991613 -7.99999578)
(1937.991558 6.107671024 -1.475743402)
(1933.545194 7.592715136 -1.775214995)
(1920.627274 0.008564277385 7.201997264)
(1921.923106 -13.92575517 13.8204226)
(1921.814685 -5.506257014 5.277628548)
(1931.497033 8.324229946 1.177843594)
(1938.125032 17.74531356 -11.00678534)
(1941.104621 11.3274926 3.38545501)
(1937.702519 19.00442544 -0.984090109)
(1933.877382 14.30441704 -6.706461485)
(1932.219245 15.70318104 -4.954025997)
(1939.520975 -0.7834018851 -9.157888579)
(1950.091944 -0.1618129527 8.288757915)
(1956.240781 4.290234761 -0.8528050221)
(1944.509395 19.14425485 -26.48558985)
(1950.633751 -0.9097979058 11.72206442)
(1961.4469 11.15944511 -2.025548113)
(1936.768597 18.48493987 -0.7684170829)
(1945.550311 28.75501236 12.9520397)
(1932.370316 16.57121422 10.03800962)
(1938.965044 17.65322774 -10.95697085)
(1926.850599 24.30391962 -21.29299972)
(1925.253139 17.07468207 -10.2724196)
(1928.73632 32.43065205 -9.065544302)
(1943.137973 28.85152164 -19.93687467)
(1938.484266 20.76212811 -8.855703798)
(1928.682705 6.047745935 -1.518740336)
(1931.033733 9.120177089 -1.365160939)
(1937.337396 -0.8652240612 11.61507648)
(1941.184562 -22.43826412 4.64431888)
(1943.147897 -12.05913589 12.16651137)
(1937.483974 -2.744156452 23.62219373)
(1922.712735 4.734374523 15.20295131)
(1911.837219 14.24429285 10.81934237)
(1915.866089 5.112058552 -4.526309179)
(1980.538818 -7.107859073 24.07597094)
(1980.059615 -3.421949757 24.76747732)
(1963.502563 14.04078826 11.07971759)
(1962.364404 3.885272748 7.497954395)
(1976.250706 -13.61636573 6.094903696)
(1971.974367 -15.00768646 -22.72511974)
(1971.458505 0.2126279906 -11.84148482)
(1967.735525 -6.509250871 -16.36064456)
(1983.076244 -3.065222577 -19.52172131)
(1986.952112 -1.809978964 -11.56555144)
(1957.015533 1.166950563 -11.96787591)
(1971.827676 20.48362328 -16.48607368)
(1949.475167 10.08405041 -20.83491542)
(1956.876405 13.68677252 -2.862768785)
(1943.417106 29.54202426 2.29969068)
(1933.910325 6.349857946 3.915703785)
(1928.562556 16.50626481 -2.569171612)
(1933.54904 14.76490076 7.158947965)
(1938.601863 -0.614340339 10.23327262)
(1955.170428 1.116972316 14.0204284)
(1964.041328 7.616538939 1.982338079)
(1973.592439 5.551788225 3.832186325)
(1966.932717 -6.192359459 8.850820589)
(1956.324687 9.946808079 -5.312776003)
(1964.831012 15.87251189 -11.36908821)
(1957.553972 15.34330909 -8.261169088)
(1958.949361 24.30801556 -3.540427706)
(1964.37643 14.22248737 -12.78692199)
(1955.355705 7.502336745 -7.839830779)
(1960.895954 -10.7769049 -12.15334416)
(1958.822374 -18.74172607 9.470395035)
(1972.203427 -2.301639002 4.087926929)
(1974.15119 3.555719392 10.09020405)
(1958.311809 4.225753697 11.77981629)
(1950.757144 8.58114151 24.58250127)
(1961.62487 14.91430486 18.83631413)
(1953.01554 -3.652964535 15.85282536)
(1952.056394 -14.15392154 10.43832687)
(1961.176321 -0.06655903703 17.80646047)
(1961.557526 17.04394529 4.106632373)
(1945.445293 27.58825106 10.39094675)
(1934.590639 18.03304553 -1.848323653)
(1940.326982 23.87967743 6.802695095)
(1949.859401 -0.8435071015 -8.915575604)
(1948.763806 -19.65511469 1.029621593)
(1937.725433 -28.32873576 -7.602267067)
(1935.113179 -7.323178821 2.064410389)
(1943.178922 7.189023986 8.928029509)
(1950.440733 31.02217824 14.41179841)
(1938.545998 30.88911895 22.68135645)
(1934.623565 18.44751375 20.958524)
(1943.381485 -4.099524923 18.73653767)
(1928.404687 3.079390443 40.16583284)
(1951.772925 2.700301254 35.17509491)
(1949.353078 12.28824489 16.95192289)
(1939.819818 10.13186708 29.16973819)
(1939.796692 10.46397043 12.91926343)
(1943.963418 25.32590944 16.09805018)
(1935.845559 19.02684848 16.31370944)
(1940.618033 10.86054091 18.95283768)
(1963.575174 11.63074826 -11.81778573)
(1960.866195 18.0906538 -20.39158789)
(1960.366936 12.26374674 -16.52204844)
(1935.445902 11.17503594 -16.13096175)
(1956.929866 9.492230074 -15.29667211)
(1948.344804 6.162636464 -18.10778944)
(1946.776677 -27.37671884 -32.50966783)
(1953.197188 -27.33938452 -23.46746228)
(1948.637197 -9.940948796 -25.02523014)
(1947.586734 -10.0264939 -1.370320214)
(1940.231607 2.47570304 -6.960435406)
(1933.044901 5.684084834 8.988996329)
(1950.39268 -0.3514932533 -1.074859973)
(1943.766086 4.703884542 18.29271655)
(1951.893692 25.57445767 15.36311646)
(1951.003553 32.62054458 7.865044874)
(1962.291138 35.37740369 -0.4899420117)
(1961.251575 36.15189451 1.022726121)
(1970.104064 26.11343856 -3.893497098)
(1968.268104 38.97066309 -18.74586805)
(1947.785718 17.32236715 -2.72281487)
(1941.319775 -1.477358247 -13.87617007)
(1936.604103 -3.310450731 -5.735213572)
(1925.573175 -5.732141796 1.924533197)
(1946.192192 -18.3614982 15.33563556)
(1946.585372 -21.61076044 9.94125331)
(1948.045873 -7.936978661 14.47678344)
(1967.721295 -5.82873237 7.847771908)
(1970.008085 3.261470119 17.66641219)
(1951.965625 9.398104592 3.77316289)
(1940.821707 -5.082070251 16.85789006)
(1941.665222 -1.070688282 -2.765026995)
(1952.104419 8.653613341 -7.649761665)
(1956.793271 16.33132269 -19.24024658)
(1965.355723 0.4106462948 4.301220753)
(1967.150986 4.639968893 15.62347885)
(1960.520222 28.0475542 36.11648839)
(1945.336444 23.64139686 35.03457151)
(1943.702536 15.39292194 18.51066771)
(1942.216384 30.545238 25.76552772)
(1965.919986 -9.370122194 -29.81652076)
(1962.760209 8.886942212 -16.14918666)
(1966.051049 16.66522399 -12.40521575)
(1971.874452 3.76782583 -15.66880156)
(1963.5126 2.535897687 -3.847960903)
(1956.305977 13.421051 -2.318820896)
(1948.306013 2.146393054 6.414912696)
(1942.163388 1.812155857 3.133756072)
(1947.210431 10.05878006 10.27786438)
(1957.273501 1.378626695 28.89079298)
(1940.719581 17.89567159 30.93115203)
(1947.42012 18.77830489 31.06773918)
(1941.633639 10.44778305 20.07661071)
(1950.920525 0.4946161567 -4.706200978)
(1955.041268 -10.31028767 -11.84257567)
(1964.801462 -8.280310138 7.743320102)
(1962.231263 -11.65210882 2.304168832)
(1963.661919 -16.84581628 -8.542426227)
(1971.261629 -2.412756985 2.250302091)
(1978.201755 2.072122342 -4.396143407)
(1942.799582 -10.94650026 5.571621888)
(1938.913498 -6.549771436 -11.42600752)
(1923.163224 -14.98836644 -27.53066747)
(1932.356152 -0.2383809422 -1.974778494)
(1925.010896 12.85611339 2.806628069)
(1920.852559 0.32326067 1.378975701)
(1925.31313 5.279840975 11.95235601)
(1944.440546 -2.520309521 -3.036395724)
(1952.162619 -1.627820822 -14.07450226)
(1955.923031 -25.27726964 -8.994734235)
(1959.826441 -10.27299885 -6.812391098)
(1952.024323 -31.24096909 -7.050834812)
(1950.472801 -41.41368449 -0.8154953645)
(1951.95648 -16.28722385 -6.017810926)
(1953.133257 -8.31702907 -4.961603077)
(1955.131688 -1.450205164 1.688687439)
(1950.747746 -5.000793728 14.06162464)
(1950.898855 -5.900200484 18.06758793)
(1953.112096 -28.17173098 18.49016234)
(1961.284305 -13.59119977 10.30323976)
(1951.305681 -0.5977543036 18.42292883)
(1947.369707 -28.9700238 18.09337768)
(1957.21685 -4.256002477 12.07264769)
(1971.715174 1.578570786 -2.881192955)
(1966.074164 8.316215855 15.65901191)
(1979.791869 -5.593849896 4.230257836)
(1985.62665 -2.784060291 3.571173066)
(1967.491717 -7.817904434 11.99156102)
(1964.433129 -26.0050266 10.11718309)
(1954.536034 -19.42460808 28.4276973)
(1952.880691 -17.11925003 23.95729237)
(1951.072978 1.031567135 25.78062706)
(1962.264133 -11.64924959 -0.1159963273)
(1974.464252 -21.16808534 1.208030068)
(1968.192015 -16.36193065 -5.876624648)
(1961.600237 -25.60474104 17.27724915)
(1973.664958 -21.05145987 22.41363089)
(1980.171788 -12.23406847 27.44510164)
(1952.75321 7.889379139 23.22605443)
(1940.484571 9.907650206 14.35125442)
(1944.850903 -25.2664372 14.17222724)
(1947.789416 2.428099175 22.75975212)
(1947.071287 -0.3420007285 12.34892638)
(1950.81535 9.000119758 5.286277575)
(1936.572151 -8.767795113 4.823054113)
(1933.266764 -19.53688147 9.481048133)
(1933.065012 -39.85905079 -2.116903346)
(1949.882845 -35.13317921 -10.39138447)
(1951.292055 -25.86724835 -15.78699889)
(1948.171048 -20.59954758 -13.18116919)
(1957.503794 -19.67021642 -18.52972578)
(1953.652579 -11.58964053 -25.7617677)
(1949.421504 9.089850434 -11.56405014)
(1959.809055 -2.296721551 6.197748365)
(1968.787964 -14.10622725 2.109485775)
(1970.330138 -12.21748437 4.984706297)
(1972.883717 -7.66509176 8.118436488)
(1960.738206 -3.644073221 -14.98936132)
(1960.064007 -17.7598236 -6.458002016)
(1956.947485 -17.98700388 2.685697617)
(1949.615558 3.116930085 9.082023435)
(1927.872654 -26.62432042 18.13322582)
(1931.095523 -20.46652624 6.014628354)
(1921.225881 -22.08007453 2.347694722)
(1932.260807 -10.78963532 -0.6968300127)
(1935.904608 2.566611846 -13.16691529)
(1930.622033 4.184772667 -26.42263823)
(1927.350982 -13.36374458 -18.72083507)
(1936.979611 -21.66677239 3.676879752)
(1959.598491 -14.76835469 4.379295851)
(1957.521206 -25.29450024 6.453928302)
(1958.957187 -36.35453127 -1.793843208)
(1963.413245 -40.84189414 -5.381986963)
(1960.359648 -10.9990931 -9.085476163)
(1951.20385 -6.967710439 -4.755429151)
(1945.800476 -22.04115418 -2.413185202)
(1960.460639 -7.613856969 6.353359976)
(1959.209904 -27.19836067 13.27715314)
(1946.688914 -10.48187215 3.932080622)
(1947.590542 -2.190340879 7.576171538)
(1948.390121 -20.6564169 4.199807929)
(1958.229484 -17.97309609 -16.85532675)
(1944.034836 1.051142547 4.240907947)
(1953.806206 14.41111033 -2.047358477)
(1941.197403 11.72950505 -23.6725273)
(1937.988325 4.473356871 -26.62524727)
(1931.161764 8.770183961 -27.68597824)
(1933.386762 -2.206539336 -21.80402393)
(1945.311758 25.28131119 -20.78727089)
(1946.627909 21.05377323 -14.7428163)
(1951.836236 -18.68262972 0.6410737111)
(1938.108895 -3.620633826 -3.783478007)
(1950.657673 -28.0981475 -4.427695122)
(1931.885857 -13.06282814 -9.682666325)
(1927.148123 5.418351871 -6.238557687)
(1929.700376 -4.005143375 -15.51156677)
(1926.414546 -0.6761199957 -15.52825909)
(1930.350106 -9.414601115 -10.10786355)
(1938.176308 -5.274741214 0.8444985779)
(1956.783247 -6.283527336 -6.690374676)
(1941.481121 15.59772729 12.08847707)
(1951.327125 10.6133255 -5.802539804)
(1963.385476 11.56793795 4.788602459)
(1945.948291 12.38394917 3.839482358)
(1951.152344 10.905542 0.4294974785)
(1962.661254 7.706587347 10.87121391)
(1959.548594 -13.65181398 29.83079506)
(1947.974667 -6.867776878 18.52942218)
(1945.157362 -10.92287467 -5.682798766)
(1948.221371 5.432481052 -13.36373303)
(1956.93127 9.254485875 -1.866957007)
(1965.714076 18.84351948 -4.641172446)
(1962.839262 23.9297401 -4.552835042)
(1963.820692 29.81205146 -15.42407241)
(1954.746489 8.51718423 -13.98584182)
(1962.360483 -0.514100203 -30.19667409)
(1952.686766 -17.66758984 -24.94912752)
(1960.025899 -5.078762761 -9.324164818)
(1965.073524 13.06139573 5.581819019)
(1962.964356 17.53826323 16.37395451)
(1950.704508 15.59387046 -19.34837684)
(1966.315991 23.22591356 -18.83362875)
(1964.261907 3.126449739 -18.8449503)
(1966.774401 -17.74188647 0.7188933156)
(1965.185265 -14.97172357 19.15539067)
(1956.606714 -28.60424547 22.09052611)
(1956.171253 -20.96670554 19.19547381)
(1976.769669 0.4724341629 25.60770333)
(1968.893271 17.64081413 26.34476949)
(1964.023792 12.73265901 25.05347736)
(1962.427616 23.33529053 10.26689623)
(1964.983331 36.77538055 1.069074971)
(1966.56231 8.574273682 -8.256276204)
(1967.90317 -14.29384004 -15.58153362)
(1951.680123 1.380625688 -25.31583304)
(1935.686332 22.15811609 -1.334988091)
(1947.577884 22.37026039 8.341823169)
(1959.341974 8.107761325 -2.833530081)
(1954.458318 4.433782743 6.101605504)
(1942.789346 3.568765227 -0.7538104153)
(1948.979145 -10.37868839 -1.395170962)
(1939.786844 7.361552357 -8.2552238)
(1937.694184 23.6972171 1.704840953)
(1950.168586 7.690986442 -20.13702325)
(1965.002101 -14.3005796 -21.86672894)
(1955.965892 -8.736471663 -4.756294084)
(1936.087465 1.69055241 -1.831881293)
(1937.594906 8.788803361 0.8669437255)
(1929.514445 8.55035154 -1.349961276)
(1935.335528 30.70950854 -0.6399312116)
(1917.038613 34.40020766 5.734694582)
(1924.512287 22.97412826 9.359767135)
(1933.643146 31.83386386 4.755756439)
(1934.209254 35.11933673 -22.8629293)
(1935.580569 26.59432769 -22.22990469)
(1939.063901 22.36478246 -13.7194053)
(1949.471526 9.662632826 -10.46425841)
(1952.784823 -11.85136809 -27.65235704)
(1948.496748 -14.54556426 -27.52508287)
(1941.688429 -19.58866371 -23.06922306)
(1946.446079 7.215427316 18.18147396)
(1942.936111 -9.055571592 -7.621800296)
(1925.708933 -11.62257197 -17.29660195)
(1919.73335 7.817873676 3.425630905)
(1915.117912 14.88273253 14.79786558)
(1918.202736 12.31918652 17.44546502)
(1941.327572 9.915652285 16.26634886)
(1944.971337 -3.990382459 8.029008436)
(1957.469862 3.069079987 2.626031613)
(1959.71586 7.357645502 -25.39678191)
(1968.581482 22.65404085 -32.16210643)
(1960.535629 -0.3024000923 -31.49835863)
(1953.777408 -17.47217649 -24.82011799)
(1941.753469 -8.420609743 -15.78483662)
(1929.23369 -13.34266402 4.133877815)
(1937.654758 -6.774715186 6.145679724)
(1941.902186 10.72440948 15.44365204)
(1945.39798 22.07002749 19.88256428)
(1947.996768 24.46666456 17.50960812)
(1946.45051 14.70120959 28.88990763)
(1921.31952 25.16580296 -2.368426094)
(1921.94598 27.00790074 2.87580183)
(1945.219118 13.20591909 12.08599054)
(1941.828052 -5.118504006 8.447249147)
(1958.74286 10.41515644 -6.792661618)
(1949.708286 38.00143313 -8.877599068)
(1937.825694 24.66680644 -19.78778154)
(1934.231587 15.43016421 -11.77612173)
(1935.120004 0.6314327605 -8.95141301)
(1929.183417 -3.861524273 -8.300095308)
(1941.495069 -8.431488896 -12.55581884)
(1942.868935 -4.398831864 -15.30759763)
(1941.791908 16.28774205 -18.46484916)
(1932.183881 5.143617108 3.047298279)
(1927.548677 16.45452664 14.59872376)
(1936.199622 4.730004788 15.71488609)
(1936.36882 6.337184235 26.54502974)
(1954.55211 9.267986128 11.143371)
(1964.487637 -11.03281188 2.513992866)
(1944.599438 22.95804853 10.22588786)
(1945.947938 -15.96184304 6.042254695)
(1938.668434 -8.68942789 -1.193328593)
(1938.23091 -1.418181415 -3.146827526)
(1942.207902 -14.03430716 -20.08049161)
(1931.31674 5.995260927 -16.39500322)
(1935.48651 12.67277181 12.6071356)
(1935.642895 -7.578670843 7.534809327)
(1931.899257 -5.156872534 1.022110442)
(1942.430462 13.72354799 -11.77697314)
(1935.163794 17.19513421 -41.52786147)
(1935.120034 3.824167369 -0.5729283262)
(1928.096306 2.20021671 8.999912169)
(1940.89682 -6.746563339 16.3777379)
(1929.399106 -0.3474434061 4.479317217)
(1936.159494 -17.3386196 -11.91391536)
(1933.445809 -15.67479494 -2.018377049)
(1940.98451 8.700061158 6.717324802)
(1934.670381 12.42744651 4.623072829)
(1940.077887 0.148868027 10.96529511)
(1945.195495 -8.281150206 10.05327059)
(1918.83275 9.451027525 21.45575581)
(1934.320979 7.508852756 8.683913832)
(1934.860015 16.31753195 6.254566952)
(1938.620708 -1.271663271 0.012123705)
(1937.456752 5.665843114 5.632403204)
(1939.388867 3.712697176 -5.586544628)
(1928.198678 2.64502099 7.393815624)
(1934.355667 8.788819255 11.37970552)
(1936.517052 6.682239426 7.620966574)
(1941.74342 -5.673715565 7.709508451)
(1961.335301 -0.6011477237 0.3629311588)
(1962.402611 -3.937594977 -3.446231247)
(1942.154539 4.553046643 3.725357871)
(1947.337891 6.023537506 -8.2166728)
(1949.83875 1.311413991 -20.9309068)
(1946.930433 -11.3807081 -11.44577654)
(1953.959655 -28.71023686 4.125350547)
(1945.117953 -31.16761499 26.83065534)
(1932.344634 -12.83721722 21.84864556)
(1914.27142 -13.30390554 30.58631875)
(1971.565326 -9.635842763 1.154176036)
(1980.069561 -18.56450288 18.80116227)
(1969.131234 -14.05847594 13.68592171)
(1978.532858 -7.916366882 7.584971909)
(1970.328409 -29.07777237 4.312248981)
(1963.523218 -15.5247627 -6.971578675)
(1950.237834 -13.06871905 -8.7644579)
(1941.88223 -11.91391747 -9.658773368)
(1961.256656 -18.83415003 6.63910669)
(1951.006856 -11.14874294 16.71674442)
(1944.687935 3.678603347 19.26239617)
(1945.550781 10.44352593 2.024063153)
(1961.575661 -3.752290004 9.374818886)
(1963.531968 -2.314598221 8.307185238)
(1946.900558 -25.4660572 19.95014915)
(1946.250478 -29.71194377 4.25016377)
(1948.718125 -14.68773211 24.96388993)
(1958.734051 -4.866035895 21.69151562)
(1963.4608 -3.617055038 15.9063107)
(1962.801627 7.586719086 -1.220758994)
(1968.094003 -6.769832441 -11.96545945)
(1967.688421 2.602731941 -24.64295287)
(1976.667938 -18.08614664 -17.54085633)
(1975.81362 -24.7040482 -5.969936194)
(1962.708007 -6.698877349 -1.365758106)
(1959.454895 -1.728874568 -7.156225532)
(1957.260907 11.89628287 3.952344248)
(1952.646327 -16.18139532 -5.108469925)
(1953.984083 -7.760750196 6.846902333)
(1954.161268 -23.2635105 2.98712279)
(1960.514472 3.051889563 -1.061999851)
(1965.696686 -11.59859422 -2.189453576)
(1964.738734 -7.149642482 -3.133659944)
(1962.304784 -3.404925204 -17.25470903)
(1965.439438 -6.220538639 -26.57578058)
(1964.389649 6.624830917 -11.09645486)
(1973.880408 -6.436078521 -15.1958192)
(1980.55277 -35.50949691 -20.30443291)
(1959.169826 -37.15411875 -17.71703522)
(1968.158134 -35.43191175 -19.20137693)
(1934.323519 -1.889303745 6.717740224)
(1946.212034 -10.62845886 12.53002763)
(1968.811985 -11.87564552 18.84915554)
(1972.440905 -5.046585853 28.75925579)
(1954.558198 -5.220771583 14.34653641)
(1972.486202 -14.26574395 24.14043868)
(1970.308817 -22.02070234 25.04077481)
(1950.101116 1.157810019 24.13922651)
(1954.081215 -0.4582639409 11.63546335)
(1948.455664 6.364974228 3.251271523)
(1961.489091 -0.05609137093 5.367653646)
(1973.970789 11.26402557 -4.711455743)
(1968.02315 2.421304367 -4.649407715)
(1953.969896 7.9629019 0.9656869981)
(1956.472496 22.86454106 8.866352572)
(1953.019887 8.836137159 -17.69100868)
(1942.589123 -13.65584446 -32.0194664)
(1945.65921 8.996257514 -22.71368337)
(1948.905224 13.84069751 -14.18329497)
(1945.050922 3.883777731 -6.603519682)
(1947.993891 8.061323555 10.82787327)
(1958.266052 -6.937619938 24.13508333)
(1940.171453 -3.306523182 27.35833136)
(1954.212596 -0.6091887336 7.577252037)
(1950.530652 -0.8427956167 -6.997930815)
(1963.462222 7.66457666 -9.140043781)
(1961.898263 25.12592263 -13.39639963)
(1959.365337 21.3706749 13.51401202)
(1943.909683 21.77848748 2.467971787)
(1954.25538 7.011577816 -4.669998242)
(1963.099975 -23.20893894 -27.60835877)