/*--------------------------------*- C++ -*----------------------------------*\
| =========                 |                                                 |
| \\      /  F ield         | OpenFOAM: The Open Source CFD Toolbox           |
|  \\    /   O peration     | Version:  2.4.0-MNF                             |
|   \\  /    A nd           | Web:      www.OpenFOAM.org                      |
|    \\/     M anipulation  |                                                 |
\*---------------------------------------------------------------------------*/
FoamFile
{
    version     2.0;
    format      ascii;
    class       volScalarField;
    location    "0.0006";
    object      Ma_mixture;
}
// * * * * * * * * * * * * * * * * * * * * * * * * * * * * * * * * * * * * * //

dimensions      [0 0 0 0 0 0 0];

internalField   nonuniform List<scalar> 
5120
(
5.653282603
5.623915528
5.510512838
5.638084049
5.645526785
5.556152197
5.643260837
5.616305524
5.589642154
5.446404905
5.480381271
5.594677011
5.563581668
5.636162191
5.640290405
5.595009315
5.549032991
5.616098319
5.510803863
5.652880999
5.689028094
5.673527619
5.735964669
5.698119386
5.547051861
5.693484481
5.731886549
5.704922633
5.561824634
5.625768022
5.662119588
5.719584479
5.588946239
5.510203678
5.526115346
5.487983706
5.515687489
5.517962062
5.512111986
5.457991332
5.427007296
5.433504594
5.460958016
5.570024775
5.54861639
5.480155877
5.513856723
5.518437091
5.603957001
5.601769567
5.515897562
5.533221472
5.475327988
5.466036127
5.497755898
5.597365872
5.691050092
5.644464843
5.533045904
5.527108763
5.579085187
5.695031255
5.706850329
5.706508392
5.619015115
5.743671584
5.947115984
5.911745585
5.653077983
5.619747129
5.719828995
5.626379299
5.599182342
5.599151326
5.590426991
5.517878893
5.614716163
5.637233824
5.709385465
5.652479451
5.5337305
5.444500658
5.546721399
5.627456262
5.766951722
5.729718994
5.617170131
5.584692218
5.650532317
5.719544567
5.818445921
5.653897079
5.629183153
5.637400881
5.873629841
5.913808869
5.777690486
5.580542648
5.527314833
5.591736792
5.533124468
5.656378718
5.612016908
5.72719511
5.741163286
5.617044126
5.762891085
5.899715432
5.84307329
5.791466798
5.747493204
5.692146036
5.790643507
5.685986856
5.595404294
5.678017621
5.704852123
5.695798037
5.75205283
5.580654314
5.618324628
5.57305143
5.650168249
5.544862566
5.457553415
5.629676247
5.561342382
5.54469432
5.562206224
5.695752466
5.676923024
5.577766914
5.536907456
5.657532732
5.640456154
5.43087301
5.438856151
5.444781576
5.425059597
5.567108443
5.698783104
5.836572055
5.671803367
5.499685047
5.52624198
5.547148377
5.660328014
5.542416823
5.434372168
5.40268992
5.5316662
5.565023787
5.585949779
5.45627512
5.386264754
5.512020476
5.471815872
5.429385399
5.579178486
5.611341241
5.613310535
5.567376281
5.506940191
5.707778004
5.774522172
5.866100944
5.72775007
5.839865554
5.803351653
5.665972898
5.769413577
5.65285352
5.499051836
5.392721224
5.402380615
5.399469371
5.400996457
5.685449149
5.752849366
5.724448266
5.585263758
5.575593118
5.635490679
5.538147626
5.396912728
5.437427886
5.472402073
5.57368097
5.678145498
5.683804775
5.642532944
5.623131723
5.637911025
5.589214953
5.481328983
5.517768085
5.652662315
5.432194775
5.343893495
5.490838484
5.552439501
5.556238532
5.806164967
5.654919488
5.588331399
5.473740291
5.454864495
5.388822806
5.384971339
5.488124096
5.536346262
5.487598483
5.528125752
5.562292956
5.558622558
5.657140533
5.588897927
5.567029346
5.590802231
5.537629696
5.715386175
5.590754765
5.511090452
5.502668243
5.54869737
5.540879456
5.531972196
5.476490122
5.529241366
5.596584378
5.651561793
5.62342843
5.553321005
5.620978582
5.699900588
5.685797331
5.789787938
5.69281331
5.632579862
5.663635925
5.61628349
5.508759298
5.522947607
5.713266681
5.66725295
5.546785414
5.621346791
5.751365488
5.895133158
5.686291761
5.598729866
5.671866242
5.655822929
5.611506881
5.60491275
5.604944914
5.69702846
5.701968803
5.597984665
5.680456867
5.446171597
5.384000544
5.52237934
5.517760856
5.66271286
5.60486111
5.582466322
5.531074113
5.501212
5.486202289
5.595882334
5.592981994
5.565991178
5.689493256
5.590137459
5.551413527
5.531847493
5.6629598
5.749266748
5.515219133
5.652452925
5.583705902
5.615113065
5.550061192
5.482967526
5.424746328
5.529949513
5.575832044
5.667601446
5.710916904
5.557434951
5.649028281
5.601206019
5.525495682
5.665427869
5.651498641
5.588035359
5.429793903
5.691032393
5.625634812
5.552272356
5.534171757
5.571817016
5.640788788
5.588305457
5.655132118
5.670903554
5.733606116
5.661732277
5.579774731
5.558463369
5.503355223
5.553580173
5.611216901
5.66265467
5.749672845
5.749235047
5.671646734
5.597604755
5.558122837
5.533196196
5.580541813
5.531155376
5.560971752
5.48600885
5.49463025
5.563284887
5.530067301
5.451217442
5.653084457
5.569087618
5.60539172
5.458621204
5.505986069
5.533249548
5.571715591
5.533599575
5.550060765
5.623012394
5.636223961
5.565139818
5.590485377
5.471997735
5.451171599
5.487885876
5.422375784
5.349775877
5.369616083
5.47446848
5.508462634
5.555539315
5.668126942
5.617581202
5.49647013
5.521790063
5.532259645
5.411919947
5.451580152
5.448299481
5.57537049
5.505147026
5.450264954
5.504385476
5.502931988
5.597445076
5.639900789
5.586254594
5.60329812
5.531217219
5.554398918
5.60939687
5.536334945
5.593822932
5.579309887
5.604860166
5.612900416
5.628963302
5.601145798
5.584408902
5.520635826
5.651777306
5.62959496
5.50209399
5.479432786
5.62332756
5.516212589
5.690746798
5.689910769
5.735207196
5.730882637
5.737316136
5.695344885
5.594765387
5.579902564
5.675351571
5.652506566
5.606686
5.645615318
5.860170306
5.77670423
5.764563777
5.83944931
5.579929684
5.674061619
5.732128793
5.718791665
5.729075083
5.655163009
5.691298552
5.610084324
5.595261714
5.62444062
5.527568647
5.552103924
5.689973349
5.645579091
5.73205352
5.600297379
5.633544466
5.649923274
5.497074636
5.554923688
5.670500526
5.633563807
5.557523895
5.684710988
5.58869427
5.5748165
5.523908862
5.691339923
5.60567352
5.60825643
5.635304486
5.624443477
5.60150892
5.445971815
5.319171036
5.449665118
5.556928397
5.596323732
5.661701185
5.722298311
5.757189235
5.826624808
5.880774922
5.700295515
5.633976419
5.595824373
5.651482126
5.626695412
5.616519064
5.634120154
5.474221997
5.574680667
5.605032127
5.697939264
5.729172979
5.616415364
5.603183026
5.733894344
5.613746336
5.345800803
5.517179428
5.6595897
5.618689765
5.45708061
5.49145679
5.604620729
5.616384735
5.528088353
5.52175823
5.552926398
5.66127214
5.6760626
5.71045104
5.714053952
5.734124059
5.759452999
5.635240913
5.714812347
5.611572427
5.584555225
5.669982249
5.643326284
5.623288252
5.619866737
5.647358885
5.582281598
5.578756669
5.592598413
5.601296589
5.504414407
5.52718643
5.567951747
5.660553145
5.581370969
5.56593186
5.575999654
5.588537448
5.581747096
5.49986395
5.433474853
5.602178859
5.607308673
5.53706964
5.608329004
5.669442763
5.619974342
5.674083975
5.684805269
5.696245122
5.671542685
5.696153034
5.907676444
5.908671972
5.690486295
5.608078164
5.49778008
5.43901098
5.553761485
5.578189285
5.477183419
5.386361574
5.524644812
5.598094068
5.701819862
5.551852474
5.496297756
5.494823286
5.536152783
5.545113339
5.538730039
5.446089155
5.512398193
5.281623736
5.377933106
5.481288614
5.576234858
5.719928904
5.60708247
5.742966355
5.67541085
5.536101179
5.55314428
5.636745368
5.528193703
5.484053392
5.47922984
5.337281636
5.40742403
5.509973113
5.510852496
5.484271821
5.495353694
5.549544362
5.440599264
5.577961737
5.589638911
5.677838532
5.738167722
5.481395553
5.614429733
5.59768571
5.334267761
5.394639261
5.503759931
5.573289414
5.583562774
5.542070905
5.661072105
5.564731802
5.621575164
5.718896249
5.670775842
5.57627452
5.64488667
5.596716147
5.5593457
5.58490058
5.459865068
5.508205757
5.48170776
5.400929142
5.480078141
5.567995866
5.659995705
5.617235908
5.632248
5.588872458
5.469740657
5.550392854
5.662442791
5.550540396
5.503354384
5.513834964
5.532095145
5.52076035
5.434776318
5.416059792
5.531692586
5.601559179
5.550756654
5.532157897
5.405333206
5.278200875
5.381254613
5.494746238
5.629331127
5.707783219
5.794051956
5.712718979
5.427979749
5.539716521
5.72813023
5.523192149
5.463870397
5.499235038
5.455218733
5.475491796
5.664188259
5.568998401
5.46855088
5.407974556
5.4048036
5.433531727
5.32548046
5.297361471
5.383339146
5.528859628
5.646005669
5.771034765
5.84499226
5.973362417
5.721225511
5.668552546
5.631492764
5.662367106
5.718674958
5.636443075
5.465707361
5.703885955
5.591955618
5.58751738
5.581032112
5.606416349
5.618426619
5.643686213
5.550942316
5.63533216
5.655571059
5.676319688
5.517214849
5.473902889
5.514083937
5.574048002
5.657671677
5.635451589
5.756918178
5.591390127
5.597179662
5.562800517
5.607336269
5.710286062
5.85996926
5.732060341
5.586414929
5.722465235
5.778518298
5.598946685
5.552651264
5.589221336
5.639506812
5.73030747
5.793293905
5.589065109
5.755166682
5.698212122
5.690079862
5.681782232
5.623465442
5.535981326
5.534223984
5.588586435
5.456633671
5.467251584
5.461392574
5.479460516
5.56493944
5.58491929
5.731101596
5.62864442
5.588601388
5.596976525
5.653246308
5.71372388
5.742428085
5.479005845
5.624174213
5.663839209
5.538126467
5.675776256
5.833475361
5.6687602
5.577867461
5.496991515
5.502148843
5.549567622
5.628699783
5.5571484
5.543768271
5.683076493
5.825891513
5.74823426
5.737729138
5.641670041
5.637009553
5.645613831
5.82799781
5.54013424
5.55472341
5.649241224
5.616370718
5.758782285
5.727090899
5.806544795
5.636279103
5.59625053
5.696098367
5.587821488
5.706091047
5.680487526
5.698359161
5.736527256
5.803333202
5.83158451
5.712666044
5.490603339
5.499418986
5.601126301
5.640884973
5.580942473
5.728746872
5.770472996
5.663199612
5.681173991
5.778181009
5.645022589
5.665953259
5.704322085
5.680055678
5.729816497
5.658106971
5.699034212
5.672105097
5.445462012
5.416142888
5.50653879
5.490376955
5.564222812
5.50925662
5.544951499
5.683616783
5.59703157
5.647610526
5.886827015
5.875304703
5.906636193
5.871238285
5.718069233
5.66791475
5.715245098
5.791729231
5.613804905
5.511403387
5.595997937
5.610631133
5.564230583
5.608463945
5.613671181
5.606948902
5.619400169
5.721914025
5.466589467
5.228231385
5.314107515
5.47307786
5.510522076
5.56393923
5.552434744
5.504951852
5.538953338
5.597166125
5.726439323
5.790307817
5.607762209
5.676961379
5.739379303
5.830502352
5.869421453
5.66734038
5.400735119
5.507508271
5.467232594
5.571334467
5.528379158
5.703206913
5.621240065
5.603163979
5.448942163
5.453220634
5.60121299
5.702282705
5.693893422
5.565509128
5.475012603
5.513456909
5.418255822
5.502650818
5.473389682
5.467359857
5.5263394
5.523903824
5.504655476
5.665718247
5.690834166
5.40252587
5.425695554
5.593357445
5.582645539
5.672335307
5.617604883
5.571404126
5.619724789
5.468467854
5.457502385
5.6166734
5.74318836
5.651360959
5.566367999
5.472824205
5.630721405
5.615981269
5.568033244
5.51185341
5.451369468
5.535478778
5.532018003
5.556308511
5.632986743
5.45797837
5.459923064
5.576650897
5.635168569
5.57292972
5.699780277
5.639105318
5.73188588
5.740476153
5.647543498
5.653627909
5.615193306
5.67691988
5.816449179
5.720102466
5.550486628
5.793033653
5.789964098
5.740184051
5.74279875
5.515530536
5.401445517
5.343955396
5.497193016
5.566863349
5.511639746
5.376139126
5.499322005
5.553082517
5.548203179
5.611579298
5.498502693
5.475208173
5.45371967
5.575427897
5.61740729
5.559190232
5.668148388
5.565016736
5.625480419
5.532887707
5.599063446
5.566216818
5.43939847
5.376040787
5.540281611
5.583334949
5.62100866
5.457872105
5.45060619
5.461700977
5.649909638
5.73668528
5.746416228
5.698486779
5.563792121
5.577929774
5.605218341
5.643170478
5.684083234
5.712662942
5.634236471
5.688225836
5.793960382
5.870723015
5.649596481
5.494323036
5.593948274
5.723125625
5.655418536
5.596839202
5.63527212
5.6344894
5.659726391
5.603803352
5.578658139
5.673200789
5.769636476
5.707042663
5.743461425
5.565555903
5.548148736
5.6371058
5.690292687
5.763656006
5.855129573
5.882168484
5.718494987
5.649929317
5.688506128
5.663443362
5.604869239
5.535409317
5.587549454
5.521296095
5.391248442
5.488888106
5.665809318
5.663839566
5.590802517
5.656704933
5.669259862
5.642798408
5.486774414
5.61012676
5.665461516
5.617135238
5.743663012
5.782908998
5.844829889
5.812306484
5.602608588
5.640659841
5.50561913
5.481647601
5.494643482
5.5568499
5.589571891
5.596633765
5.601090777
5.68953376
5.629280331
5.713326845
5.613937246
5.54630949
5.462839519
5.595117677
5.651844641
5.687016403
5.573320036
5.727662526
5.709972694
5.592294024
5.686374066
5.568950731
5.50786574
5.618463797
5.601328986
5.540157427
5.648344883
5.5444927
5.523502592
5.50620555
5.664498455
5.615930896
5.723280414
5.648276624
5.697680047
5.773975405
5.808885061
5.762610985
5.693052372
5.657239425
5.549288306
5.72761304
5.92153971
5.850228459
5.669226713
5.568338939
5.58166828
5.574116636
5.69579522
5.598803426
5.675207714
5.597559309
5.413010701
5.507041888
5.591505421
5.528488812
5.574430437
5.61236371
5.85274584
5.76688771
5.670933864
5.664635957
5.693919037
5.828628447
5.871711304
5.916536426
5.949083711
5.823722235
5.747289917
5.693947569
5.701641347
5.719528512
5.753215479
5.71509816
5.849110283
5.745605803
5.725969753
5.888588662
5.672723326
5.902120167
5.907545533
5.872895101
5.749037702
5.650138283
5.57731384
5.574234168
5.532942007
5.612874138
5.609981208
5.606223594
5.69515326
5.586969699
5.591877435
5.782913502
5.810346909
5.952027224
5.829155204
5.754048352
5.847351034
5.663534342
5.693123929
5.639403636
5.594992616
5.625737702
5.697746705
5.660779266
5.659737907
5.72922363
5.573930428
5.666351926
5.634455436
5.516620703
5.56493903
5.437906953
5.654997757
5.827868221
5.78483416
5.721360664
5.445564084
5.458455124
5.59694867
5.573383317
5.590993441
5.495810224
5.555099567
5.631436552
5.773883812
5.863023004
5.770880671
5.774608195
5.703062547
5.694987602
5.678390839
5.676483081
5.477865699
5.447252247
5.559610019
5.560634078
5.495014455
5.370339048
5.436278567
5.516240041
5.575742034
5.48427299
5.515443414
5.678902205
5.610769823
5.636786907
5.622826745
5.554145559
5.564154075
5.654780118
5.72510762
5.729940916
5.870107076
5.586608649
5.521619225
5.515957087
5.516877031
5.616400789
5.726452428
5.700701764
5.657418028
5.615133433
5.68105352
5.562888882
5.612593767
5.651031389
5.573690265
5.659390963
5.541171578
5.534458125
5.476777923
5.614919362
5.750591154
5.555513062
5.473192435
5.472582174
5.672350013
5.547093242
5.545803558
5.517280965
5.527889285
5.644315715
5.643043726
5.613550411
5.644874339
5.667880489
5.652879378
5.565054192
5.548653233
5.667337878
5.743273791
5.699431794
5.599591753
5.536813126
5.665300128
5.56223432
5.520119007
5.501052988
5.649130067
5.656794151
5.766116162
5.677749528
5.591467662
5.488696273
5.483706185
5.392697254
5.536697912
5.433977605
5.397991622
5.541294599
5.708209776
5.737701143
5.757595532
5.659728564
5.720467416
5.676674178
5.764292169
5.813652191
5.647915714
5.637085725
5.706629402
5.617596867
5.659490823
5.55380699
5.47054544
5.482867209
5.425143282
5.371288961
5.428542359
5.489381572
5.491773337
5.536304377
5.596272529
5.549149579
5.527615641
5.625257332
5.576698876
5.554353266
5.737289131
5.654543889
5.601847476
5.693445687
5.634295837
5.573595965
5.581890333
5.588657546
5.717280557
5.629004163
5.493622957
5.411537588
5.490042808
5.602873439
5.5817042
5.49858541
5.543913452
5.523670539
5.453590334
5.452224127
5.542744675
5.604096852
5.702603833
5.696804405
5.589105591
5.504431119
5.455003946
5.733234974
5.563533842
5.508928328
5.4816655
5.591381122
5.668186774
5.590393311
5.391104334
5.46979941
5.437738489
5.556810424
5.494059282
5.570644125
5.686793407
5.722045532
5.817144983
5.670994861
5.550028846
5.66395719
5.558339968
5.440191214
5.34424413
5.393960315
5.488499256
5.440757224
5.359132526
5.316747986
5.549756001
5.580180497
5.525621306
5.543974833
5.390849457
5.466607522
5.439985302
5.6920787
5.746405584
5.718447715
5.668841862
5.719285586
5.631879041
5.549935248
5.630775635
5.719559984
5.696002212
5.67196448
5.775437458
5.766175928
5.615813172
5.618133973
5.537895523
5.384124027
5.592314115
5.640326613
5.490957192
5.493373239
5.501626877
5.576603623
5.490844993
5.612462102
5.612663006
5.571625751
5.471891188
5.536492819
5.614224449
5.599538308
5.545177799
5.651025428
5.601714519
5.555291911
5.639848831
5.575758078
5.634918852
5.550327449
5.651358445
5.585857388
5.523961901
5.602056267
5.696758409
5.693695422
5.71694547
5.943609312
5.823218477
5.771486428
5.683006683
5.731068022
5.71840142
5.629283277
5.627963889
5.779528309
5.672550136
5.726274716
5.584830168
5.650641033
5.55901268
5.606712175
5.582132048
5.567191309
5.627110286
5.658245605
5.657031111
5.598059669
5.569578782
5.604121788
5.524690622
5.397634318
5.477908014
5.477321743
5.473428672
5.471557915
5.424947456
5.575727399
5.423098436
5.498111887
5.582533683
5.607542016
5.52933908
5.547343289
5.686485605
5.573288928
5.618008666
5.595009741
5.586026888
5.652157402
5.684115461
5.639053138
5.67320147
5.708282111
5.628283035
5.601735479
5.566666474
5.475045096
5.514532794
5.666942223
5.621225844
5.767995989
5.595534836
5.477295006
5.390862565
5.496909202
5.604512132
5.635249126
5.464813304
5.453949189
5.518591503
5.600327122
5.67684809
5.618331957
5.563035317
5.588881542
5.467422703
5.524640467
5.51172677
5.378141435
5.408328668
5.464384889
5.673264738
5.77491266
5.86824803
5.763075947
5.657462175
5.580993259
5.735066796
5.679568994
5.721209129
5.802448605
5.916931453
5.900395348
5.842263033
5.657742076
5.583991332
5.618823906
5.765565811
5.660703107
5.555622699
5.523181556
5.477798651
5.573108779
5.476702011
5.478052043
5.494302714
5.422930243
5.475956093
5.565939635
5.631402099
5.539453062
5.625044611
5.799230349
5.883606949
5.674165001
5.56299874
5.717975173
5.574221691
5.687741764
5.630719132
5.647408301
5.476501622
5.572377325
5.557262458
5.500212696
5.612621645
5.656139366
5.768566193
5.798513833
5.760028037
5.709061344
5.724968287
5.537275544
5.487206053
5.62386808
5.672489634
5.61094378
5.634140721
5.437424482
5.548417472
5.701389525
5.72414838
5.599269183
5.791790228
5.931681817
5.813511926
5.808602608
5.743058555
5.529868949
5.60476787
5.609770743
5.63662103
5.62528003
5.516334203
5.657160072
5.733228749
5.728156461
5.705847439
5.855197782
5.696715179
5.597380339
5.495995363
5.544122385
5.512136857
5.607156869
5.544736311
5.557091695
5.646911455
5.539885892
5.641812522
5.594489054
5.538525704
5.509265679
5.4659953
5.673643495
5.684342464
5.754176507
5.949161826
5.905340366
5.796758106
5.626218097
5.514405324
5.722404682
5.499717289
5.476939228
5.586291949
5.650551198
5.617473527
5.704780956
5.60619954
5.566548513
5.601946367
5.575858282
5.667744581
5.80932688
5.817415675
5.823970942
5.824641249
5.889041365
5.750918895
5.830096462
5.726030089
5.682932349
5.557949054
5.628254195
5.599923016
5.487832005
5.504823276
5.658360611
5.740459126
5.702957187
5.621821493
5.70717333
5.655023421
5.666066759
5.678602627
5.8935655
5.739851771
5.764878751
5.809416269
5.672688554
5.735748277
5.797859893
5.895066602
5.824240126
5.733072277
5.776415052
5.752394733
5.704577362
5.65671692
5.590248738
5.500506256
5.36620302
5.426806283
5.496580893
5.716608999
5.657351998
5.476181413
5.504192184
5.449845966
5.52738331
5.516923272
5.426306879
5.348658302
5.430726373
5.566578233
5.451135513
5.543409744
5.54927239
5.607244502
5.707892015
5.597743658
5.476338152
5.556315334
5.587753281
5.627506336
5.481913998
5.621487115
5.636192047
5.699506195
5.679316584
5.571416505
5.68575235
5.791933198
5.659712722
5.489690323
5.474799416
5.558761869
5.449383858
5.483291195
5.535163995
5.524041724
5.554846743
5.549598335
5.456094958
5.570898904
5.626584067
5.551834264
5.550700979
5.575686686
5.495695659
5.420537907
5.531223489
5.484856898
5.419603583
5.457456686
5.587499942
5.615576535
5.554539691
5.631562534
5.856258291
5.742537079
5.520634411
5.533939308
5.405109629
5.321642499
5.411098583
5.388243124
5.450862861
5.643995959
5.691698286
5.728008224
5.595241512
5.651759472
5.601465185
5.676333129
5.522930073
5.667903044
5.678760047
5.661071684
5.531955287
5.699546831
5.863892951
5.907555252
5.709624512
5.683684729
5.427972282
5.60597684
5.705580053
5.687730853
5.778556079
5.86248985
5.754229228
5.812666977
5.801764273
5.769772052
5.695856779
5.639824789
5.63731697
5.720528731
5.742311148
5.769040188
5.648423613
5.727282036
5.693138122
5.555474003
5.582017069
5.439759657
5.471634395
5.645778817
5.635426419
5.736046024
5.737941014
5.590094403
5.570989093
5.478882943
5.456002431
5.563629164
5.471289235
5.469182047
5.54522279
5.59808835
5.5933201
5.511574921
5.402291549
5.441920049
5.393462159
5.561672037
5.754142725
5.553067247
5.419995539
5.342896487
5.529545189
5.596307459
5.570088412
5.524452247
5.643087477
5.549678403
5.541350624
5.582080948
5.518400405
5.653038658
5.663772699
5.530548399
5.557459009
5.444292501
5.524595991
5.732215447
5.607120073
5.511848024
5.598616313
5.73735752
5.738993938
5.709401162
5.760823768
5.765837223
5.638577385
5.625144654
5.383296945
5.488121498
5.661977387
5.543798562
5.508211908
5.509249916
5.577850702
5.692043965
5.690731877
5.694806955
5.702622226
5.757400274
5.623766524
5.571056427
5.516306721
5.54095149
5.650471946
5.787418293
5.875522255
5.776726996
5.760997001
5.840933453
5.785272611
5.679736636
5.642471603
5.817347535
5.738500099
5.696744679
5.676013499
5.617354243
5.682914676
5.617111365
5.633509311
5.61882021
5.591900413
5.572956787
5.65010451
5.681872888
5.692082235
5.804392839
5.855107427
5.73847395
5.754226629
5.716894862
5.623265562
5.557518919
5.61200287
5.706765416
5.665601179
5.714795608
5.737016425
5.65875664
5.565718368
5.612767637
5.603930045
5.612512868
5.602672884
5.535366908
5.512341245
5.649773255
5.705453969
5.624730674
5.576038341
5.528613114
5.490902394
5.547641148
5.592337472
5.615202486
5.672686515
5.792899311
5.754012129
5.693033569
5.580702377
5.664093564
5.56726975
5.616039881
5.488752817
5.530556247
5.574022298
5.632908498
5.785153917
5.891573373
5.769703042
5.668172285
5.824329259
5.676262486
5.638281602
5.608564702
5.674867994
5.856823743
5.72190083
5.700991694
5.562695638
5.46875431
5.737121539
5.689174147
5.745583603
5.584342545
5.543897555
5.611383648
5.71232953
5.70008143
5.808611983
5.650029498
5.46599798
5.498774409
5.470192667
5.649356857
5.832516819
5.586574258
5.600237083
5.632049378
5.808249953
5.601955688
5.487404818
5.52772169
5.580631
5.648236492
5.493508735
5.629557005
5.730913288
5.604537674
5.41976157
5.555217654
5.612048524
5.789830346
5.772132877
5.734195385
5.650178365
5.490124294
5.450006948
5.542742677
5.484547685
5.509962742
5.540605099
5.600570533
5.513153722
5.548187749
5.669668573
5.809685654
5.770779856
5.68313188
5.481738886
5.526239982
5.539964469
5.596234606
5.698850217
5.705502888
5.577209377
5.64226796
5.549205514
5.553099488
5.705297659
5.620905703
5.665856332
5.629531718
5.730075947
5.852018566
5.759459041
5.654730307
5.701174935
5.789778888
5.627118732
5.553149085
5.757748312
5.723250874
5.778764978
5.76041056
5.791353407
5.681254794
5.652776943
5.525160398
5.582137494
5.548393284
5.534837826
5.627775755
5.407819058
5.399083379
5.567234421
5.394630801
5.472653283
5.377519609
5.430204526
5.426675029
5.487336447
5.450039489
5.35384068
5.394287716
5.589749566
5.531914416
5.62009434
5.691394287
5.593356808
5.544683874
5.465066686
5.400352903
5.474576986
5.641863751
5.47518535
5.449882517
5.586921684
5.510678542
5.432233999
5.553999099
5.531987823
5.611638381
5.77134347
5.719153205
5.67091324
5.810383005
5.675281261
5.723195972
5.605203768
5.515821052
5.584577173
5.557792078
5.429328398
5.464725874
5.709526231
5.62094832
5.580977189
5.558809917
5.643830159
5.544715269
5.610826456
5.642728861
5.484581298
5.59678815
5.712872269
5.829679532
5.782741211
5.690035721
5.798033603
5.784767209
5.838223911
5.745017833
5.617417843
5.599936127
5.6980096
5.77193851
5.689387438
5.625522884
5.61141003
5.591025839
5.536416044
5.415601664
5.420766333
5.611618385
5.705242603
5.665651289
5.541799049
5.678977677
5.704389284
5.739839717
5.725786613
5.690358203
5.826304194
5.790293038
5.731494845
5.704052669
5.788063064
5.774051671
5.799163789
5.693438336
5.848080268
5.829395801
5.626783469
5.737953013
5.820262263
5.62208945
5.653067753
5.530187609
5.575751591
5.739817
5.784706852
5.816774031
5.594754612
5.613454357
5.753494781
5.820896449
5.694934743
5.690674031
5.562115948
5.574879403
5.513102126
5.56912409
5.661350992
5.680832722
5.649901404
5.611050957
5.630562256
5.655605387
5.556545788
5.51223964
5.481740358
5.410700553
5.594962604
5.687016544
5.557955768
5.591821512
5.659662417
5.423017026
5.42082004
5.29808679
5.375696534
5.447752715
5.490137861
5.745728993
5.638912583
5.633224929
5.556417593
5.688626584
5.710500787
5.663260092
5.700026866
5.680500418
5.542676384
5.576122692
5.620502744
5.563610229
5.767659619
5.644340226
5.620855852
5.619217411
5.564556049
5.466510401
5.510013469
5.645470745
5.628398107
5.752952783
5.834293324
5.659350442
5.651264212
5.708595642
5.810889959
5.756905414
5.680117686
5.617336665
5.560301875
5.512428815
5.556868634
5.752335795
5.527465846
5.527665506
5.495968416
5.591422176
5.533083709
5.644139918
5.66167265
5.590670527
5.56562667
5.587585697
5.53645878
5.643893323
5.707216553
5.561862949
5.500568364
5.605882582
5.635757859
5.545901174
5.485947556
5.542105464
5.6618022
5.651417882
5.753547388
5.612574207
5.620068288
5.576912507
5.560245906
5.622200518
5.440348538
5.532572243
5.598292404
5.459861348
5.472526972
5.593497136
5.775063276
5.767053898
5.728147785
5.631763191
5.591496523
5.458467575
5.462051369
5.443502196
5.460854659
5.693768894
5.575550975
5.551267327
5.773099345
5.624917039
5.714467957
5.720762366
5.745156729
5.490805161
5.502225361
5.487149952
5.423193503
5.526436908
5.411743983
5.385026769
5.357303759
5.48320921
5.562868222
5.712366385
5.764011234
5.58642467
5.550849645
5.563844213
5.507255322
5.597015348
5.532526306
5.539255502
5.633210388
5.791691739
5.704753831
5.801840044
5.836601995
5.89896326
5.855232733
5.838250304
5.603605215
5.581672523
5.528164379
5.660712441
5.653295051
5.570985743
5.568720352
5.585207472
5.61250524
5.510545806
5.509449742
5.540489648
5.41174906
5.504780573
5.609087523
5.667816993
5.639360486
5.623643629
5.673290678
5.50374677
5.451654314
5.572985991
5.736633807
5.857369502
5.801009277
5.743989827
5.634768107
5.499232482
5.485317417
5.471712851
5.478569513
5.500794476
5.490339648
5.528485308
5.587394757
5.626673385
5.548715484
5.583933094
5.594225918
5.536960194
5.375310512
5.4135572
5.553150516
5.630986493
5.658041184
5.565178278
5.464086674
5.457769807
5.404953094
5.746091701
5.730219602
5.652071322
5.552655272
5.500343932
5.364073623
5.414980329
5.571870709
5.551580642
5.442565721
5.461027694
5.4441343
5.529854158
5.674139565
5.711322751
5.782208341
5.719029195
5.617797727
5.551284984
5.681829994
5.679151578
5.600242992
5.62622379
5.638258297
5.651542215
5.727888437
5.592073
5.479390301
5.522623042
5.35703667
5.454605732
5.584927685
5.677047681
5.642943322
5.608690689
5.541188339
5.508574764
5.597320263
5.685354718
5.756889341
5.700261939
5.563650963
5.476273284
5.605132229
5.678333253
5.621623137
5.637120628
5.647143671
5.488534739
5.481367629
5.54655241
5.542191196
5.452617742
5.52598394
5.65650849
5.746722264
5.815439888
5.676615713
5.726473474
5.783576781
5.682181416
5.70500716
5.622775608
5.58786807
5.554635877
5.568646831
5.405475847
5.483003684
5.500861074
5.56541653
5.619749824
5.643162894
5.664265311
5.64256062
5.52772098
5.40156954
5.575959586
5.678479537
5.565926911
5.664326623
5.499650558
5.646887572
5.668650122
5.515005869
5.447864868
5.453554106
5.46741657
5.46041902
5.484813542
5.479603858
5.362221665
5.573981869
5.68218146
5.462050429
5.408895971
5.545751237
5.584687235
5.444867191
5.299217468
5.332774442
5.443842618
5.51200315
5.538425334
5.554365445
5.577095141
5.602048644
5.506157411
5.401702232
5.508613042
5.551106261
5.605494934
5.431913303
5.557668857
5.595248169
5.656674192
5.368454478
5.47788988
5.628821058
5.52582579
5.527638763
5.694006443
5.689534955
5.630693849
5.54526061
5.599295543
5.619479093
5.61466359
5.673716041
5.648139249
5.651392591
5.612070361
5.611377065
5.626990488
5.661132704
5.666456334
5.757124701
5.494893483
5.54889045
5.627546127
5.561402198
5.453802513
5.467902636
5.502054689
5.647905942
5.532141392
5.420998996
5.502328562
5.410095524
5.463008162
5.6364485
5.537716699
5.645000861
5.697761233
5.658680786
5.638770463
5.631915653
5.56199593
5.468213191
5.491811979
5.618525947
5.376060949
5.582449052
5.707956966
5.734571822
5.682807293
5.490610854
5.349132833
5.334473596
5.604004671
5.673695337
5.894961653
5.82224879
5.847768313
5.835479274
5.62729292
5.624810187
5.707784778
5.623849043
5.425980688
5.321298228
5.540124918
5.566102498
5.62568777
5.77064293
5.764188509
5.706169966
5.704562251
5.798562921
5.698466155
5.728563955
5.806103812
5.75764719
5.530775182
5.689337615
5.706894395
5.598958327
5.595194043
5.584867863
5.485666467
5.523316532
5.525361225
5.55341703
5.592536739
5.686715582
5.678793534
5.476737001
5.524947984
5.615598088
5.617849951
5.637309418
5.735686493
5.675332011
5.69647282
5.635061452
5.593374739
5.622564409
5.59379007
5.565384861
5.661184235
5.685659986
5.399242436
5.522184524
5.561373664
5.656213441
5.644529941
5.751722786
5.822846338
5.582058119
5.60526693
5.672020633
5.83788445
5.65722692
5.590291846
5.389681159
5.552509934
5.534011457
5.588413928
5.672487231
5.575372368
5.42175246
5.543200423
5.59164865
5.60733756
5.418468448
5.56382367
5.652981386
5.65384211
5.597782861
5.579572754
5.53117178
5.459832387
5.616557567
5.54429843
5.274532078
5.177269184
5.270748446
5.428143627
5.409514428
5.376493613
5.398035103
5.551656716
5.435433104
5.5011566
5.612063622
5.664437893
5.538466236
5.427329978
5.381533003
5.433492934
5.541533029
5.566299758
5.689768032
5.621105519
5.634832434
5.578014795
5.569581138
5.728887721
5.669772593
5.822371893
5.642228445
5.421968403
5.597647801
5.65359553
5.563768623
5.543466864
5.509561974
5.498432707
5.432762846
5.319928724
5.360539909
5.506234208
5.613800977
5.626947891
5.59486349