/*--------------------------------*- C++ -*----------------------------------*\
| =========                 |                                                 |
| \\      /  F ield         | OpenFOAM: The Open Source CFD Toolbox           |
|  \\    /   O peration     | Version:  2.4.0-MNF                             |
|   \\  /    A nd           | Web:      www.OpenFOAM.org                      |
|    \\/     M anipulation  |                                                 |
\*---------------------------------------------------------------------------*/
FoamFile
{
    version     2.0;
    format      ascii;
    class       volScalarField;
    location    "0.0006";
    object      Ma_N2;
}
// * * * * * * * * * * * * * * * * * * * * * * * * * * * * * * * * * * * * * //

dimensions      [0 0 0 0 0 0 0];

internalField   nonuniform List<scalar> 
5120
(
5.620625567
5.6522366
5.498590711
5.606950229
5.593129177
5.595705199
5.681709565
5.70209922
5.62193257
5.391201728
5.416786782
5.452525204
5.440720401
5.529267003
5.578175438
5.481695678
5.415748706
5.463359794
5.33314601
5.508380113
5.57441715
5.545035858
5.635298299
5.604369503
5.431351273
5.600180563
5.697895079
5.550256118
5.400042195
5.46100923
5.532884543
5.663374773
5.507695969
5.535600905
5.471717283
5.390118467
5.464668609
5.494957158
5.527117258
5.432399775
5.376883561
5.341951949
5.328285452
5.447390775
5.425110439
5.405938238
5.37909915
5.446767033
5.573692528
5.566683017
5.542478093
5.542775864
5.440551655
5.312539608
5.421512698
5.578752782
5.675377802
5.632269701
5.524681534
5.44845162
5.540598698
5.805351992
5.783583953
5.718753872
5.581382921
5.687337369
5.872539304
5.849358427
5.624247285
5.611214282
5.637484043
5.565318658
5.567562104
5.63972546
5.606271919
5.472685035
5.562102134
5.543170803
5.678541482
5.603996871
5.432890334
5.343370105
5.533716364
5.670706417
5.771707547
5.663055614
5.508536676
5.510207895
5.618165734
5.66887935
5.816010846
5.669852818
5.634459311
5.576210464
5.789646235
5.768107313
5.653595972
5.476502796
5.472071964
5.488620849
5.543540637
5.584443759
5.535437769
5.625725582
5.638074367
5.552808693
5.776444762
5.921236375
5.902807884
5.735703592
5.593449915
5.52737772
5.669327679
5.590414181
5.521711038
5.656101232
5.74759495
5.742566464
5.689000442
5.558432077
5.611358336
5.526544372
5.524984876
5.432848356
5.397411207
5.555740216
5.508622219
5.418844336
5.472481407
5.64800801
5.677080912
5.502317738
5.45477047
5.546251362
5.539232003
5.301992659
5.299044112
5.326161861
5.365839422
5.444102066
5.55551318
5.732767064
5.600428564
5.408774489
5.422407873
5.466109295
5.615021501
5.416442845
5.325470813
5.358246185
5.486123485
5.498462081
5.532319151
5.336897818
5.228031277
5.365578099
5.322524865
5.218625479
5.445799869
5.506197116
5.580348479
5.524091964
5.447388685
5.601456488
5.629662544
5.670098232
5.517982212
5.677383868
5.664307732
5.447636708
5.552893766
5.41748165
5.389413861
5.425013704
5.411650093
5.29968126
5.245211009
5.582667583
5.629942438
5.659454629
5.488353274
5.51042925
5.53991746
5.482410358
5.368317773
5.362244418
5.3810047
5.404699974
5.511324521
5.557784175
5.603230865
5.52493948
5.515328302
5.409506818
5.412091462
5.520715032
5.585542388
5.316121266
5.297899542
5.486140974
5.425931595
5.441615684
5.676938716
5.472435461
5.483358457
5.486850791
5.46787467
5.385888196
5.316714451
5.459048486
5.522597829
5.471914124
5.460367437
5.460676285
5.502391728
5.639871877
5.577341828
5.578559604
5.501021929
5.377196351
5.601276496
5.558815718
5.509843944
5.427648456
5.499331489
5.509363579
5.433094328
5.393673481
5.427208052
5.522193781
5.580673587
5.470061387
5.4860496
5.53493154
5.585536937
5.624056063
5.708689667
5.570245228
5.523010306
5.568331442
5.594073034
5.422771362
5.458873236
5.652043121
5.541617722
5.446242837
5.5592218
5.680803627
5.811765598
5.518800475
5.442278383
5.583648715
5.55789174
5.510200358
5.585494112
5.563871133
5.649269314
5.640030769
5.530816255
5.633688021
5.353070162
5.277182118
5.457013372
5.476346096
5.680056214
5.525104516
5.440066019
5.391914151
5.389792538
5.356396414
5.458162982
5.500851244
5.491541412
5.624965675
5.484500032
5.466439534
5.485854834
5.681647584
5.84135463
5.465047948
5.585207271
5.570183136
5.545087146
5.512097806
5.426372411
5.325622534
5.472266992
5.570071166
5.690896861
5.709276772
5.476077448
5.596032307
5.626546264
5.530950826
5.618937992
5.640421762
5.652665371
5.427336612
5.603695599
5.553421335
5.529563508
5.520581078
5.548196573
5.619242381
5.531390623
5.596335733
5.58200166
5.635552907
5.634049827
5.555276136
5.566411405
5.446685908
5.512978193
5.513514387
5.571086735
5.618299449
5.598715252
5.506610164
5.520638613
5.549830148
5.562937301
5.570666646
5.495605512
5.466236906
5.453144226
5.497925221
5.572157208
5.547333273
5.383107351
5.594174588
5.495098264
5.609932665
5.442997824
5.485347249
5.554067402
5.517190849
5.433827637
5.463778751
5.56987094
5.600448345
5.465924504
5.490783336
5.402437373
5.470198039
5.453420815
5.395614102
5.33596583
5.316519361
5.435199173
5.44707996
5.440019359
5.598825226
5.459677449
5.368348722
5.488806748
5.55267592
5.369954348
5.373686898
5.371937253
5.482098389
5.356367236
5.313832933
5.351538635
5.369067446
5.459015636
5.563311031
5.492680326
5.544384695
5.399414103
5.438746683
5.45894432
5.352923755
5.463466246
5.501469163
5.511594162
5.479266399
5.44881835
5.435146979
5.404402482
5.35318421
5.610336149
5.588124624
5.508918463
5.38255043
5.558162358
5.465034379
5.65558851
5.587165852
5.530468339
5.530625874
5.563972834
5.519057722
5.447379803
5.442654647
5.536936108
5.534181951
5.569110268
5.585186682
5.796800636
5.687356593
5.620288899
5.689640261
5.527808692
5.622462754
5.617685178
5.54710128
5.510918777
5.469103657
5.531127938
5.455433459
5.443043973
5.479726183
5.454463653
5.398911334
5.518687876
5.412346301
5.535861316
5.464370408
5.559259374
5.653444432
5.409481752
5.569387941
5.587330731
5.474437877
5.378838898
5.541856913
5.383186354
5.394189815
5.387023369
5.537420581
5.535696744
5.532593895
5.556783306
5.468851112
5.449682558
5.27475015
5.149605391
5.287578547
5.453401878
5.509351133
5.569157044
5.685559631
5.746631069
5.808231134
5.847156054
5.625166821
5.586949967
5.521204335
5.577103671
5.531042313
5.433186631
5.461428911
5.391275839
5.402066986
5.422791656
5.525057899
5.55802008
5.449280547
5.436487804
5.634121461
5.428060365
5.232311668
5.434981947
5.630389179
5.631242265
5.479383208
5.52700323
5.562027103
5.591546494
5.382333581
5.414465973
5.452522909
5.47990767
5.578543797
5.58284004
5.601967192
5.630206773
5.625815357
5.449981864
5.460945378
5.557754044
5.534679211
5.68279957
5.54994412
5.515221208
5.533176357
5.574761136
5.577368211
5.512068202
5.519264232
5.601589237
5.515004558
5.599595153
5.532814746
5.622807412
5.500887617
5.475580551
5.454845485
5.465722674
5.52512902
5.316381698
5.263783174
5.462966195
5.486669385
5.369779696
5.506192764
5.526357325
5.48042339
5.556259678
5.573906425
5.501365928
5.509460511
5.569545219
5.791444951
5.709797451
5.512268851
5.452205735
5.372665245
5.282650606
5.324359382
5.541502841
5.451646613
5.363156703
5.505208645
5.564991561
5.659821707
5.479007388
5.445549565
5.484024083
5.434163799
5.488846268
5.456471618
5.391859623
5.416501111
5.180347421
5.278474864
5.359381095
5.401122786
5.573878263
5.545391124
5.60102641
5.558425679
5.525968221
5.502362968
5.6126843
5.505091653
5.429047916
5.424867823
5.253466065
5.351647569
5.480344161
5.479254824
5.397794413
5.367109418
5.427687116
5.378027822
5.585358578
5.479182721
5.577748239
5.612681105
5.382082812
5.586128038
5.545649659
5.284918829
5.340739439
5.469653996
5.557112852
5.477972015
5.408659937
5.525555722
5.435143851
5.504598135
5.621302742
5.522171988
5.445298738
5.557331545
5.508500724
5.589964441
5.56416081
5.411204866
5.45418782
5.399643029
5.262850164
5.386884902
5.493221655
5.558499019
5.486970178
5.545190039
5.568393384
5.446914714
5.563598098
5.622765261
5.459907085
5.446948724
5.434790848
5.422385502
5.430685028
5.30585424
5.327136484
5.50582093
5.60544172
5.443876492
5.449400502
5.337069874
5.222399728
5.407761563
5.503583993
5.605464645
5.676679698
5.673083041
5.638152536
5.437593113
5.524859183
5.734820199
5.423751455
5.423510802
5.436027642
5.442611984
5.467850563
5.573969015
5.544041795
5.461557713
5.438005508
5.446029499
5.495173157
5.284673637
5.282688654
5.305782904
5.471187082
5.641006551
5.802786054
5.82264796
5.953794178
5.655130716
5.633558607
5.601436499
5.69357091
5.730703561
5.612080806
5.42089154
5.579165584
5.470372289
5.52713404
5.504985076
5.486038809
5.54059827
5.579058557
5.458737644
5.546784167
5.625523089
5.650576222
5.426892429
5.4455829
5.52496422
5.549973423
5.582201036
5.557881388
5.711256177
5.57155494
5.503779056
5.545236486
5.561644364
5.639862878
5.741257783
5.746492258
5.566411791
5.704073405
5.800441393
5.546929728
5.45582334
5.521939611
5.63497186
5.758562675
5.774947079
5.479024778
5.593232696
5.582935632
5.60545805
5.588376029
5.569115151
5.355876797
5.33294623
5.412643673
5.315670758
5.28234663
5.302631572
5.347085202
5.35167267
5.418685398
5.681953418
5.460622502
5.385907683
5.447887701
5.559126631
5.636016718
5.694037153
5.370231447
5.501449592
5.526884866
5.374654852
5.623615771
5.795325509
5.608404452
5.421471559
5.362838375
5.385133017
5.419592203
5.542070086
5.487868339
5.412865396
5.568471007
5.693696824
5.697865221
5.728398976
5.572892746
5.578346532
5.535640666
5.736330986
5.436106757
5.409134573
5.630508238
5.565500597
5.729363811
5.715054679
5.79206413
5.63036465
5.554422568
5.54646287
5.492441173
5.612047758
5.630058242
5.64326598
5.637108684
5.734981515
5.759540564
5.67178898
5.442060735
5.40487057
5.445439846
5.60851218
5.532174926
5.647318451
5.664920976
5.584497047
5.601734706
5.657891639
5.54609088
5.582504461
5.588382102
5.558717446
5.636903453
5.646076592
5.727984383
5.704054026
5.463234137
5.382980148
5.50437451
5.455429064
5.551009968
5.445676543
5.487732577
5.558836125
5.493935145
5.635280962
5.892621525
5.784518712
5.78968667
5.713651088
5.573241626
5.50117296
5.593590911
5.698115104
5.508800945
5.448111621
5.525557456
5.511808953
5.440163185
5.526069071
5.539675441
5.541975903
5.548706759
5.702643666
5.484127717
5.198021144
5.239090442
5.457511077
5.469832091
5.554387767
5.576224629
5.502147375
5.444737689
5.474732351
5.631838459
5.674214674
5.44417634
5.573150778
5.786298525
5.916008606
5.867547871
5.575004359
5.338425598
5.433487035
5.407613313
5.519030472
5.484822914
5.666029221
5.519992361
5.414126575
5.360311084
5.342120932
5.482616387
5.649227419
5.632649341
5.45969571
5.407412611
5.405125649
5.274197048
5.469874587
5.496571347
5.439159665
5.451398566
5.506020693
5.50827554
5.619313079
5.659392188
5.319553857
5.351762966
5.489131989
5.46194442
5.536660685
5.502435713
5.43567578
5.491490777
5.326943036
5.342508155
5.534436982
5.752639693
5.621677367
5.530189373
5.387242763
5.512283802
5.510290352
5.548484135
5.462465868
5.518785154
5.511636867
5.528808607
5.516540215
5.629952378
5.397680105
5.306467402
5.487545012
5.575301351
5.496335298
5.643103221
5.567070877
5.616816231
5.663317196
5.542537799
5.529784752
5.648841196
5.686194027
5.746940285
5.63234296
5.417563206
5.725446024
5.77150624
5.646665059
5.654973539
5.440071659
5.352715906
5.253141565
5.35962256
5.456484926
5.325441568
5.266610465
5.470578582
5.498151757
5.479361609
5.607845259
5.423240377
5.391813986
5.367008867
5.436475941
5.524370445
5.518326441
5.471357807
5.369729043
5.409724816
5.325035847
5.455279004
5.512057603
5.379371556
5.358916229
5.520615925
5.529286915
5.596807131
5.488172717
5.452268825
5.402576243
5.59300176
5.688931347
5.681146576
5.58199498
5.435380196
5.515734119
5.619757941
5.672559372
5.656330331
5.730853562
5.699179485
5.628858718
5.723838544
5.833489738
5.566987633
5.395552652
5.456433924
5.623129074
5.63655319
5.573999092
5.518368121
5.567995336
5.602380265
5.515575774
5.448480349
5.54926169
5.653292769
5.609085936
5.756170075
5.564969687
5.489674541
5.638378295
5.749734977
5.766762518
5.852381319
5.829992789
5.66298618
5.561902477
5.518248769
5.498687078
5.586702126
5.447391699
5.513559573
5.465035686
5.299896966
5.428484954
5.554082662
5.614202213
5.517460022
5.533421344
5.579021218
5.540283087
5.437489619
5.612556013
5.662552639
5.615700641
5.748466999
5.780748705
5.82431191
5.795752265
5.706810221
5.649140659
5.399114559
5.415372269
5.474041745
5.519151132
5.561392837
5.611553713
5.622150251
5.744112715
5.548560507
5.681044846
5.582199674
5.452451041
5.396986402
5.517203102
5.591485726
5.651430113
5.5160055
5.742371449
5.531733165
5.41173708
5.574744751
5.473710655
5.412814645
5.642093102
5.580699275
5.45747518
5.530501314
5.480696783
5.525394757
5.453909573
5.607370131
5.537553554
5.642057455
5.509585625
5.63184145
5.669768166
5.690594167
5.613452554
5.535561573
5.54150615
5.435430049
5.634398957
5.875859384
5.750271695
5.574804747
5.51012943
5.585410136
5.509753433
5.627814332
5.568554937
5.613159633
5.502223961
5.33924692
5.451282138
5.522216855
5.464897632
5.381955973
5.472244428
5.7972218
5.8042331
5.657152229
5.640255704
5.631827039
5.708516279
5.77576091
5.792727637
5.825782915
5.777102451
5.676129031
5.562450501
5.505472736
5.513533187
5.571523656
5.554244443
5.692822242
5.659493389
5.635256047
5.839001668
5.640944661
5.881362298
5.794224884
5.743385127
5.599302244
5.565746398
5.521757286
5.516898059
5.530741254
5.489006532
5.564349965
5.515458934
5.569083509
5.478926373
5.524126701
5.691833286
5.708157647
5.829959532
5.751937924
5.709805033
5.768652937
5.562660393
5.584742688
5.524066608
5.490278147
5.585896571
5.774297994
5.730606512
5.718064377
5.624584415
5.420163347
5.541885195
5.599699183
5.470569385
5.462026616
5.389907625
5.666950547
5.796213296
5.708013619
5.578503142
5.387464543
5.4377537
5.602838678
5.521490056
5.556954524
5.493124351
5.47475455
5.511233415
5.590440428
5.823223775
5.810565877
5.768304028
5.56729128
5.627402696
5.635308805
5.644117956
5.334261309
5.358292663
5.496593092
5.454857137
5.413135917
5.302237914
5.285189181
5.39985555
5.475768965
5.35706131
5.484413339
5.618221685
5.536888812
5.57154271
5.599830647
5.575933336
5.54916773
5.558061604
5.5794863
5.587951379
5.730009996
5.450543626
5.35776661
5.417206132
5.568209313
5.582158389
5.652977399
5.660059245
5.570674031
5.536978592
5.624336609
5.546616883
5.568042592
5.64303437
5.486934192
5.532822503
5.433384462
5.422726071
5.470847127
5.573137857
5.71634823
5.514971562
5.425139072
5.423455321
5.568702309
5.467149984
5.515442851
5.478529599
5.444119904
5.538241887
5.556317758
5.552258081
5.596468136
5.68931533
5.690437437
5.560138745
5.55546312
5.629438703
5.691716062
5.598308816
5.475720903
5.361007246
5.499731156
5.384155564
5.480832565
5.43843503
5.455781309
5.521076462
5.690751929
5.712154926
5.622731953
5.496920356
5.495265337
5.324208715
5.464815116
5.317599065
5.303417777
5.503283892
5.607100868
5.587659575
5.590232754
5.475988121
5.602664016
5.659221125
5.648306112
5.733769647
5.595775096
5.567419471
5.648910458
5.567874544
5.588875237
5.476197801
5.39944692
5.393570086
5.254400843
5.160322762
5.290731387
5.381315604
5.46180955
5.460550307
5.453268081
5.510090361
5.497262052
5.566904057
5.444681945
5.428651097
5.595457173
5.539768438
5.478750037
5.566664549
5.552940293
5.522103312
5.604331671
5.599765361
5.621527568
5.45610539
5.316806285
5.247031679
5.354992735
5.522247061
5.502013508
5.395243928
5.435945689
5.449421649
5.428670226
5.538962298
5.574550785
5.547295458
5.579799259
5.568204072
5.50427957
5.441238923
5.403194528
5.636775071
5.455872595
5.416583619
5.344599695
5.464233384
5.551477345
5.536418861
5.354464066
5.415270267
5.441165928
5.568975377
5.390881711
5.451856804
5.480178473
5.51936473
5.598133163
5.429513501
5.308276338
5.473985473
5.426713466
5.378636953
5.268349497
5.316441209
5.430565496
5.452624249
5.248148859
5.173029961
5.397936523
5.500115706
5.430952344
5.416171865
5.318136463
5.50766972
5.448715098
5.720660895
5.698223446
5.625334614
5.61724283
5.587826396
5.493526836
5.417348694
5.520921027
5.684839255
5.564214147
5.508016337
5.678616201
5.645251578
5.455215759
5.553740112
5.539016499
5.345456195
5.532656893
5.605614829
5.436193117
5.362918133
5.256492938
5.37450494
5.347628392
5.486724367
5.528311665
5.487921233
5.414604966
5.431642725
5.540699402
5.532380725
5.462499792
5.613673484
5.558881808
5.479200791
5.525675128
5.551173232
5.6496021
5.515843086
5.571231962
5.405940774
5.392291042
5.457673448
5.51889172
5.590578011
5.604878612
5.862152383
5.746763176
5.723222743
5.629735053
5.592075109
5.652218119
5.536930406
5.542568998
5.800801644
5.748400752
5.76823922
5.572152779
5.593887325
5.493650089
5.607800203
5.468391563
5.46645671
5.588408463
5.604308262
5.561055914
5.418474422
5.486473894
5.496224848
5.449228437
5.275008325
5.324446931
5.312315143
5.447191583
5.463338265
5.452990129
5.567404778
5.331999286
5.405793652
5.503188987
5.546176449
5.470221924
5.494755155
5.57249397
5.477736496
5.41792009
5.453175597
5.433302854
5.519469668
5.587210257
5.539904743
5.600151809
5.63108562
5.620205789
5.621321024
5.497555728
5.395353697
5.390455966
5.604432869
5.587195494
5.773161782
5.575073205
5.548622412
5.344296913
5.442249351
5.577470936
5.536004569
5.287077988
5.326376662
5.388736199
5.460154466
5.541227248
5.582579728
5.452877355
5.475631113
5.380225319
5.4377406
5.477720036
5.270482247
5.275557376
5.444228739
5.70235036
5.769868442
5.861024831
5.717275379
5.630543591
5.60923539
5.645749306
5.54448689
5.615162482
5.716351903
5.818832226
5.730983439
5.72859265
5.572728626
5.496839976
5.542543435
5.628560519
5.557691874
5.492336736
5.430479001
5.49121473
5.507454289
5.389646773
5.448909115
5.433050047
5.306216066
5.467019646
5.581140794
5.581311023
5.475579657
5.55189727
5.687888297
5.828495122
5.606074062
5.467602252
5.67060125
5.470525733
5.624975084
5.561885135
5.547860632
5.339012997
5.454603099
5.480380766
5.365974458
5.542222049
5.650226973
5.736821786
5.757790597
5.747000969
5.735250768
5.767822853
5.527453375
5.399896827
5.562708161
5.631718724
5.568290146
5.471177047
5.387506871
5.565937674
5.729583785
5.69686425
5.595929075
5.83129879
6.020929015
5.862385883
5.801263189
5.697910729
5.485829243
5.560844006
5.482565807
5.491939969
5.519049759
5.50633514
5.571417093
5.668999413
5.623569542
5.641502158
5.745322615
5.585721891
5.540224828
5.507660926
5.473326199
5.430669637
5.499117573
5.491427114
5.559980526
5.671389661
5.573955519
5.636706494
5.550023106
5.52591079
5.44947284
5.395134565
5.59398635
5.617988123
5.697072021
5.793515828
5.830354412
5.677206525
5.504333082
5.415121614
5.704420955
5.481030838
5.444099264
5.521012539
5.524419856
5.50793414
5.570139986
5.461309051
5.453980527
5.485072995
5.459222892
5.535870711
5.752808237
5.798957242
5.742138872
5.793356415
5.808325356
5.72542249
5.819107257
5.73788936
5.725573645
5.525978929
5.608270558
5.574520349
5.42072877
5.404874196
5.601512286
5.697537042
5.657456227
5.663503727
5.743375949
5.638890427
5.623355814
5.568267989
5.873837371
5.692524212
5.688374758
5.700042747
5.55996115
5.643990886
5.717445229
5.812537558
5.715816251
5.620359112
5.726501373
5.588733416
5.626288932
5.654536313
5.652783768
5.422225929
5.322741683
5.402634664
5.462238459
5.625706384
5.599621002
5.401563782
5.385290149
5.368044428
5.463350874
5.437512448
5.380032056
5.2440906
5.347544362
5.395834793
5.293120786
5.411419815
5.430428797
5.51798932
5.564559544
5.514087552
5.353022141
5.487669758
5.54414227
5.61358447
5.465695765
5.500052939
5.467660638
5.557457116
5.599839601
5.556783167
5.633322509
5.733344321
5.51814583
5.383675162
5.377659303
5.524690961
5.421768442
5.454161167
5.526248913
5.548078449
5.560175795
5.509657989
5.324732351
5.416947069
5.493993871
5.451160134
5.451263625
5.442222568
5.446449788
5.43819061
5.511937899
5.357345005
5.262737237
5.294541941
5.455980674
5.395310749
5.42911565
5.487749667
5.713111277
5.648099066
5.476413841
5.403769549
5.285362411
5.226095379
5.261965342
5.291666698
5.403101259
5.563786238
5.652723278
5.671075863
5.568871182
5.595117013
5.555487983
5.631446425
5.413846059
5.568933091
5.574892966
5.651355733
5.455123304
5.63618603
5.813529538
5.786570995
5.660398601
5.60660972
5.344643075
5.524417905
5.561138613
5.617294841
5.719462663
5.764486802
5.651076713
5.714539454
5.694008806
5.626820554
5.522008968
5.460748813
5.482290913
5.578844298
5.621880963
5.613932909
5.549796583
5.664482395
5.566838895
5.455811666
5.490502123
5.45916684
5.450800098
5.558480327
5.572327702
5.787257732
5.823034156
5.602126019
5.528593434
5.374849071
5.424211228
5.46925005
5.319584829
5.411592731
5.496791465
5.598308657
5.583383222
5.459816947
5.336209359
5.45234218
5.455632528
5.573217928
5.665500119
5.473671252
5.417959914
5.285952528
5.424463533
5.472719037
5.510636087
5.526452999
5.612530932
5.526914613
5.47999501
5.482374821
5.432926983
5.62755749
5.631001565
5.534162478
5.62542068
5.506150388
5.566574059
5.610691296
5.543736507
5.508096532
5.540056521
5.688694464
5.710158068
5.820160595
5.796904895
5.656708081
5.469888977
5.458522147
5.126111773
5.240818751
5.518938269
5.429257479
5.425356806
5.497072773
5.608742182
5.700114148
5.627271849
5.670486743
5.637315246
5.703714848
5.54827388
5.508379944
5.419679914
5.435443155
5.597692611
5.717480324
5.809975486
5.712819124
5.648442629
5.73487677
5.681507409
5.620553417
5.582875579
5.736075108
5.681835088
5.676016644
5.626095125
5.717146612
5.760486725
5.615069663
5.597176611
5.537770088
5.490628882
5.433572185
5.479358474
5.604130571
5.664447444
5.823055562
5.874685669
5.745353109
5.692411329
5.628318997
5.52835812
5.531988147
5.626124533
5.726750902
5.673975637
5.671402059
5.659665253
5.554499014
5.482881215
5.537885444
5.506265605
5.454642838
5.496303056
5.420904721
5.456582735
5.577312079
5.658266505
5.610424062
5.532939708
5.430177441
5.488310813
5.493741067
5.568384249
5.591293039
5.612439724
5.744380096
5.646443611
5.555949619
5.448048566
5.547589667
5.488660974
5.495008053
5.423041526
5.446096569
5.54595099
5.624203946
5.719378955
5.910685119
5.740285155
5.577009587
5.761165144
5.553026017
5.474359124
5.436278499
5.618440407
5.634778448
5.577954111
5.545122285
5.4502246
5.27783628
5.56198635
5.599799665
5.710052494
5.520123275
5.45763128
5.533519757
5.621833793
5.541822225
5.669971389
5.53253501
5.32308766
5.449327532
5.454094378
5.641598184
5.708128047
5.505887835
5.495682558
5.476726467
5.633064862
5.528498536
5.418260791
5.367017474
5.451403355
5.595466837
5.452498097
5.618242438
5.69401482
5.6284575
5.332937035
5.383348647
5.415224297
5.610061573
5.532737522
5.482589731
5.566952635
5.346865243
5.356326245
5.475731835
5.423743078
5.405037682
5.377271823
5.480402864
5.437802092
5.483648503
5.567080267
5.704643776
5.706439785
5.595292232
5.413507507
5.490056895
5.658422007
5.595589934
5.698778806
5.622340578
5.424322116
5.606971707
5.539584491
5.57835895
5.771608122
5.658336507
5.581381897
5.523230698
5.558930442
5.721137297
5.626154497
5.611015344
5.643009675
5.789246683
5.646306309
5.557558686
5.709923267
5.703966491
5.725497968
5.761317621
5.758988767
5.630448127
5.586051765
5.396228787
5.429114769
5.435579306
5.459181977
5.442963108
5.260730195
5.331551516
5.456637642
5.307988381
5.439835531
5.364481566
5.414364513
5.400242431
5.483714107
5.500802193
5.440982652
5.504212822
5.592464024
5.507107728
5.65115253
5.594308581
5.545327773
5.483305496
5.428963669
5.327969498
5.466129595
5.619416846
5.377868901
5.338661552
5.533851093
5.414614244
5.397637299
5.536799973
5.439779008
5.434883951
5.588432931
5.532538941
5.565782638
5.689422432
5.546419911
5.648451014
5.577464796
5.401649642
5.505044405
5.599521728
5.344834586
5.359135469
5.660006676
5.48912846
5.343031523
5.40565788
5.459734881
5.345406017
5.395629161
5.495208414
5.329980662
5.448565591
5.616058809
5.742834065
5.733086525
5.636177627
5.799858835
5.793570351
5.775969173
5.593359547
5.478886651
5.526826279
5.642058711
5.74633032
5.637509787
5.54197487
5.554455532
5.565168436
5.499415221
5.364147222
5.304780212
5.535419583
5.634825121
5.52039747
5.462815284
5.565520261
5.547527351
5.645918089
5.688362401
5.581492671
5.664528291
5.611526056
5.553210417
5.55222371
5.690494118
5.6765657
5.666940196
5.539522289
5.664618794
5.593708813
5.488571325
5.556772809
5.636193769
5.521087092
5.531142668
5.385737534
5.427826318
5.588556442
5.669561149
5.682195945
5.40124453
5.451169252
5.6090507
5.697532089
5.6432736
5.630547341
5.468026909
5.496720445
5.397859428
5.492249386
5.620310267
5.532723536
5.570508349
5.589596963
5.564161966
5.550317502
5.384739635
5.399918583
5.357338342
5.215224436
5.403562252
5.494300532
5.402595105
5.541265119
5.555691355
5.343681074
5.399516138
5.297714721
5.339719086
5.404147069
5.476039735
5.784093018
5.667293373
5.627398991
5.410014838
5.450085017
5.483048591
5.489487262
5.554909011
5.507010091
5.415872342
5.441966545
5.465558993
5.399856565
5.679361573
5.551210666
5.596078025
5.581746975
5.579567544
5.374927461
5.35573571
5.478413779
5.575968962
5.669858484
5.810619182
5.613171216
5.614622986
5.723483586
5.778400908
5.653045524
5.603036625
5.570717952
5.511739008
5.445439474
5.542740519
5.764531651
5.568541868
5.518177454
5.413133021
5.524694599
5.432872788
5.494752149
5.511254685
5.579702673
5.478054423
5.561362909
5.540878154
5.649801049
5.677611287
5.521988208
5.413084555
5.517207721
5.543586411
5.526719836
5.53489781
5.6030206
5.634842864
5.668563798
5.753642171
5.621013919
5.593559875
5.58251941
5.518058783
5.553454849
5.294562632
5.40879927
5.49479037
5.312318414
5.371581945
5.490175331
5.646448041
5.64903696
5.667653222
5.591809545
5.541511468
5.41460328
5.439489724
5.405857084
5.415869896
5.649199732
5.528912771
5.461175013
5.726877521
5.561690916
5.694583594
5.691885257
5.666638528
5.356184876
5.42611783
5.458975962
5.49945871
5.579908943
5.424486095
5.346554558
5.254794185
5.345473411
5.448956607
5.716247095
5.739217382
5.459292705
5.404730501
5.456810883
5.405511998
5.448121843
5.402395956
5.428070045
5.534525758
5.728444544
5.71466176
5.768014056
5.755510448
5.876328237
5.813004815
5.729943808
5.58340756
5.521644065
5.426377582
5.563416363
5.581407177
5.523857193
5.42350059
5.447740527
5.476111092
5.446423178
5.437249599
5.518641479
5.457856399
5.486343129
5.619493047
5.680869264
5.559316408
5.531432765
5.570848382
5.485311512
5.54594084
5.605958727
5.728229669
5.846061562
5.754973929
5.724344154
5.596260268
5.436581307
5.396340289
5.483163829
5.542166362
5.557798949
5.459236408
5.518433633
5.526290448
5.561764839
5.499539102
5.556364243
5.522130796
5.409311469
5.265984247
5.342772471
5.508754885
5.604241378
5.61617736
5.551241714
5.496822943
5.548989326
5.450424015
5.776209655
5.677909697
5.541713265
5.468751426
5.370302475
5.447542518
5.402101058
5.525502869
5.455049326
5.389754974
5.446127003
5.463142937
5.564364404
5.635141185
5.667670308
5.779356556
5.76068065
5.700015979
5.568014201
5.687060656
5.589050385
5.5468163
5.614785891
5.676982156
5.622253336
5.644634861
5.546451686
5.439268979
5.504100475
5.334518039
5.336673277
5.457161279
5.570759334
5.545465202
5.493059798
5.430642453
5.445589068
5.508292891
5.61429386
5.702045214
5.634628211
5.437132677
5.36384907
5.471958165
5.579715993
5.442345544
5.512567012
5.515678647
5.378139898
5.411683245
5.468873182
5.442667947
5.386735598
5.417743053
5.579230429
5.602965573
5.705986743
5.62208563
5.654931093
5.7614202
5.585630664
5.663775535
5.53110307
5.502932627
5.529166567
5.622578653
5.518822649
5.543304558
5.537485159
5.475253006
5.559755021
5.608636834
5.653970395
5.681589742
5.438030092
5.31728564
5.454005719
5.646361464
5.537709711
5.573146948
5.392099329
5.516225681
5.5413102
5.46056889
5.358250072
5.332319395
5.421744737
5.399776986
5.415022176
5.397919013
5.329583741
5.570619935
5.660327419
5.414283602
5.343943242
5.436502651
5.453209734
5.305585844
5.150060425
5.198514073
5.468536315
5.533889557
5.508749468
5.521023344
5.525601009
5.471641553
5.43103212
5.388225174
5.520789064
5.458438468
5.491252678
5.28768667
5.531461997
5.553315648
5.525090676
5.202233228
5.386717525
5.558412509
5.535082477
5.527471177
5.530186948
5.579202653
5.509563602
5.375685633
5.41954428
5.54841316
5.569025486
5.625304416
5.591691427
5.577418325
5.548719964
5.512701219
5.54795734
5.525562963
5.57424686
5.646367388
5.317790751
5.389121092
5.441507771
5.340065338
5.39413083
5.394726594
5.434248729
5.627702547
5.536340365
5.319650453
5.382401285
5.312303506
5.367821563
5.542523031
5.447607159
5.571113618
5.640126008
5.620726329
5.573385045
5.605647926
5.589825046
5.436095633
5.444309433
5.558280042
5.24157448
5.504108789
5.639697748
5.640303537
5.584802855
5.390700211
5.23653504
5.197723342
5.573649616
5.616405419
5.823477078
5.786809487
5.862628844
5.911958178
5.602478174
5.597332743
5.685538453
5.54348404
5.322610828
5.138384276
5.391499975
5.357420278
5.447645324
5.630810964
5.609380502
5.52143628
5.538324674
5.676007783
5.557256723
5.65869732
5.795234962
5.810450532
5.531743261
5.629417337
5.720200772
5.61416757
5.608966959
5.607458963
5.454778603
5.517339356
5.478785235
5.491691285
5.554939157
5.558056257
5.536192138
5.331411843
5.340461717
5.419862199
5.463055166
5.408637994
5.546652735
5.479576468
5.544202255
5.581949513
5.537352836
5.552112174
5.539704131
5.55412435
5.608273395
5.613140623
5.270143493
5.413031461
5.481163844
5.613771705
5.639818507
5.756545517
5.808172563
5.506518612
5.528681052
5.560437115
5.683881478
5.552866974
5.463474094
5.243831397
5.436858885
5.425776095
5.493115473
5.595670606
5.536954141
5.280765713
5.412474921
5.515010712
5.494627253
5.286495031
5.408445222
5.513245615
5.57082997
5.502700261
5.495518538
5.436739251
5.357273603
5.533044236
5.462929825
5.174940475
5.117496178
5.147734728
5.284636347
5.233150796
5.174020083
5.195620906
5.430027806
5.325067405
5.427621558
5.532120719
5.618721618
5.489036063
5.341858092
5.369119105
5.349628172
5.561380982
5.548317312
5.670621555
5.625822143
5.605066898
5.516283115
5.479389786
5.593637112
5.517797319
5.654959128
5.506327582
5.421054246
5.588853736
5.63260492
5.466606368
5.483400453
5.43539241
5.420104499
5.381810653
5.227177125