/*--------------------------------*- C++ -*----------------------------------*\
| =========                 |                                                 |
| \\      /  F ield         | OpenFOAM: The Open Source CFD Toolbox           |
|  \\    /   O peration     | Version:  2.4.0-MNF                             |
|   \\  /    A nd           | Web:      www.OpenFOAM.org                      |
|    \\/     M anipulation  |                                                 |
\*---------------------------------------------------------------------------*/
FoamFile
{
    version     2.0;
    format      ascii;
    class       volScalarField;
    location    "0.0006";
    object      Ma_O2;
}
// * * * * * * * * * * * * * * * * * * * * * * * * * * * * * * * * * * * * * //

dimensions      [0 0 0 0 0 0 0];

internalField   nonuniform List<scalar> 
5120
(
5.74566123
5.579486542
5.554128722
5.760421864
5.829916071
5.459066049
5.55360136
5.392993232
5.508597882
5.646491825
5.736114209
6.217015785
6.16160433
6.196087179
5.920565642
6.123053702
6.174806022
6.206387327
6.099375715
6.097170338
6.117228792
6.177774749
6.100056148
6.00964845
5.923542793
6.034734045
5.846678578
6.357624816
6.119282863
6.207142816
6.118938619
5.899600652
5.898415236
5.461123923
5.721670341
5.833397834
5.704023367
5.642531605
5.501853967
5.563851208
5.5786508
5.791939692
6.081363083
6.090037811
6.085894152
5.764513504
6.033649321
5.788198915
5.705235705
5.74103387
5.462516198
5.523825691
5.600063417
6.05777887
5.76281536
5.681866656
5.743572871
5.693093726
5.5884554
5.784222531
5.759888011
5.419862128
5.54162263
5.682846808
5.756782953
5.957603429
6.224801396
6.120679208
5.762033175
5.65907102
6.066808468
5.936837437
5.752441374
5.485306829
5.566368115
5.729451222
5.860366387
6.061893987
5.881822958
5.908555594
5.909444362
5.830731893
5.598569695
5.510126926
5.764273307
5.967480005
6.016558376
5.880080941
5.806752467
5.948260523
5.837487065
5.638602635
5.624103662
5.852921028
6.178640931
6.445122109
6.250668526
5.968832921
5.732468297
5.966612918
5.5532536
5.978330423
6.003008842
6.187204245
6.222501221
5.910792784
5.784593867
5.837379952
5.68894207
5.974989766
6.328586172
6.356886683
6.239196435
6.047241791
5.91050309
5.803188143
5.616199481
5.579305998
5.998576341
5.699899931
5.649800094
5.726644268
6.098365323
5.926575661
5.633076217
5.869348058
5.709849279
5.95055892
5.815551789
5.852752834
5.703543897
5.822699705
5.80248929
6.045951987
6.026019532
5.904039125
6.013309568
5.972521123
5.642502809
6.053211849
6.222281762
6.181839167
5.899845703
5.80715274
5.838057771
5.791632186
5.820067552
5.987813018
5.843516733
5.57200249
5.687907929
5.805110925
5.791730483
5.895400907
5.992041947
6.003432015
6.006830169
6.132429498
6.033064479
6.010356169
5.76892736
5.738505039
5.730536971
6.134407015
6.366759122
6.611143406
6.638169581
6.409077659
6.245149289
6.472410969
6.565883045
6.516971455
5.815972449
5.335952603
5.377499124
5.803163467
6.028211476
6.07491754
6.229002915
5.938178171
6.01604268
5.896512746
6.055239158
5.77876522
5.524790508
5.728870257
5.800043672
6.279751265
6.313436142
6.157313983
5.796465609
5.949003746
6.086291279
6.206763693
5.714150765
5.569153034
5.92931896
6.018943605
5.540931743
5.533766518
6.019937946
5.955431719
6.327229907
6.364909851
5.944861977
5.441384921
5.430708579
5.42705352
5.701611852
5.587444261
5.613111711
5.556354693
5.753567812
5.918313362
5.740045623
5.757145457
5.678157529
5.561399613
5.915472762
6.282423604
6.111715956
5.718917599
5.533349369
5.762965296
5.758169424
5.643607871
5.84054317
5.711042343
5.820208723
5.815533795
5.900145378
6.145981666
5.816351992
5.912193389
6.098969406
5.924583881
6.103883601
6.137478155
6.058226885
6.015062463
5.697415302
5.793360196
5.738656894
5.922477907
6.10673374
5.886509332
5.85458085
6.004825545
6.194086592
6.270349557
6.261402507
6.026120008
6.057082773
6.067181885
5.702414946
5.75308694
5.923491504
5.93649601
5.819083641
5.828391212
5.793059617
5.82061657
5.768755199
5.662123858
5.620180332
5.848788103
6.03076205
6.00443247
5.903273466
5.99401894
6.136710678
5.932565799
5.844263116
5.925847668
5.968462301
5.832206395
5.696266525
5.613225127
5.557632558
5.688485654
5.936988519
5.677749669
5.943095068
5.705823184
5.738795805
5.931439546
5.778801199
5.606468507
5.60884305
5.726852053
5.870815299
5.853779253
5.595687713
5.569680907
5.847753569
5.708946348
5.432301656
5.462908335
5.99634124
5.912341172
5.624630746
5.582001634
5.668866623
5.746010611
5.826989362
5.910243688
6.019021703
6.107749198
5.78608015
5.65875158
5.549733492
5.712106726
5.722326449
5.975003176
6.026802262
6.217000616
6.334913908
6.324729554
5.868540902
5.622514956
5.490644786
5.644017325
5.660766615
5.932088184
5.615042165
5.512929443
5.550960902
5.481305727
5.725245999
5.92552294
5.934518227
5.630266444
5.547893318
5.611611081
5.537024995
5.835165663
5.94622167
5.934482779
5.920083648
5.816255033
5.939231489
5.942352997
5.745568928
5.416587617
5.618469512
5.535612913
5.399395419
5.590212931
5.608064778
5.688969074
5.904393189
5.875006385
6.187648702
5.993092533
5.659677054
5.471904076
5.62066757
5.825805229
5.796780047
5.950769588
5.986300242
5.897377157
6.041607248
5.959111378
6.113326674
5.898243966
5.908229965
5.867193578
5.944771235
5.91323173
6.076341799
6.120461687
5.966827819
5.79566931
5.847298099
5.960086416
6.129960635
6.045587861
6.133770257
6.058052736
5.786283311
5.750419699
5.484156113
5.765655445
5.79764593
5.639672115
5.784209721
5.994467111
6.514941316
6.417698366
6.299084779
6.205934056
6.055641097
6.036849969
6.148625706
6.066629311
5.744305038
5.850542417
6.069316208
6.040306034
6.235519343
6.281033839
5.741425462
5.834402747
6.082692217
6.323480478
6.445498816
6.278090187
6.227898914
6.127668986
6.159519697
6.152403145
5.796304675
6.159003881
6.299172223
6.577601
6.48876502
6.0984996
5.871546756
5.655900245
5.777327889
5.540463688
5.909712721
6.166592875
6.302193759
6.360671618
6.522579305
6.28156342
6.040716668
6.335625613
5.940438509
5.898458014
5.907664358
6.170425183
6.136051625
5.984461565
5.858414464
5.942084632
5.898893778
5.896283782
5.991438832
5.850346109
5.842415477
5.931542246
6.002162274
5.912536133
5.766270544
5.817449315
5.885750124
5.93854781
6.2634107
6.240494503
5.78309645
6.277039357
6.472912815
6.463868889
6.500734586
6.346451462
6.332424063
6.096422014
6.266912578
5.703222942
5.79415001
5.766114059
5.60608403
5.454854698
5.473186206
5.740215813
5.698775031
6.069241111
5.952635753
5.959223467
6.446619351
6.031985448
6.190289412
6.165734153
6.152707923
6.230336182
6.363078261
6.759493344
5.818992207
5.738040414
5.675904023
5.985101984
5.959116818
5.944073762
5.937959838
5.651379264
5.859144862
5.843278774
5.617510803
5.478102245
5.335357607
5.685616065
5.777459096
5.83166652
5.906923833
6.069150233
6.113552175
5.797396357
6.102568663
5.964259363
6.106695572
6.065869404
6.193061631
5.974186709
6.15656944
6.023787179
6.017404999
5.999329829
6.338083942
6.237828861
6.160311687
6.381718786
6.696547763
6.253864255
6.121730647
5.844876447
5.874129793
6.299988785
5.723164199
5.567599386
5.45647025
5.585268951
5.712196591
5.853813667
5.792053361
5.669024958
5.533287667
5.96083575
5.755877209
5.847695597
5.630380969
5.826248779
5.643434889
5.731377905
5.971968227
6.345693707
6.308625893
5.814795368
6.219797838
6.084114081
5.609911244
5.724041356
5.703704351
5.610104174
5.686900455
5.697398834
5.612994012
5.561173252
5.584444074
5.605463739
5.799306249
5.918318382
5.908743758
5.635195055
5.570968963
5.939282897
5.970479587
6.125225125
5.886338325
5.727852456
5.785815745
5.49771981
5.581409878
5.645929676
5.638536215
6.090940499
6.15391182
6.257612131
6.052122348
6.00670099
5.990872125
6.151604942
5.981498883
5.88969315
5.891083844
5.484101163
5.66800363
5.642314167
5.695365512
5.771692568
5.812138924
5.767037923
5.783401124
6.02289122
6.042794618
5.869202401
5.65018052
5.5676338
5.537855918
5.795021058
5.877921924
5.682868932
5.795550585
6.006358386
5.869295415
5.915558013
5.749363223
5.635836188
5.608991458
5.973516781
5.91211206
5.716742473
5.498040421
5.330682129
5.506831556
5.720691734
5.808485189
6.270879889
5.975253624
5.42494424
5.635104609
5.776519054
5.903441048
5.696366653
5.831679744
5.502300588
5.513731671
5.984526092
5.761972234
5.516098833
5.347213857
5.302980406
5.276546944
5.520626527
5.404942208
5.74083355
5.788447011
5.736411736
5.732653347
5.940192533
6.098654371
5.985563662
5.83381002
5.754580026
5.576482137
5.762299454
5.754216403
5.699904849
6.184742002
6.039368885
5.772786425
5.807825729
6.016252283
5.875301414
5.871557695
5.89975659
5.994366541
5.793210193
5.809301534
5.89973333
5.588758247
5.499651047
5.666955308
5.976745857
5.965489117
5.920686287
5.670455362
5.941609329
5.643713874
5.78335921
5.986678165
6.337725354
5.688795813
5.666241172
5.809995005
5.734932077
5.822462027
5.969403223
5.889370503
5.679642856
5.654105405
5.869851798
5.97189323
6.335301687
6.174399466
6.025927466
6.041663018
5.824087398
6.160260655
6.266933917
6.308868406
6.033757518
6.135853197
5.978032768
5.947019911
6.367423858
6.227851819
5.896609236
6.331845446
6.472387379
6.251120362
6.118985647
6.069540521
5.924507814
5.942503704
6.128715886
6.1858441
6.123502281
5.85455458
5.963548765
5.862367676
6.153545562
5.984565832
5.935674642
6.03484294
5.926730565
5.788198851
5.975827589
6.079889248
6.260951242
5.89616505
5.765430329
5.883326098
5.863026397
6.064918849
6.200915899
5.959337342
6.071898298
5.842982078
5.843959856
5.919569694
5.773642388
5.859634614
5.667459638
5.750652709
6.252412278
5.980865239
6.066872792
5.868610817
5.905016963
6.12628881
6.055747986
6.091622893
5.874160735
5.667730762
5.801911357
6.168848182
5.787456847
5.773048211
6.039197807
6.18528389
5.950073389
5.95325461
6.207914513
6.056663521
5.982574565
6.134827639
6.071002047
6.041952437
5.730665271
5.639435258
5.613960027
5.43040279
5.553680698
5.534068672
5.619082553
5.625182886
5.742342599
5.7242473
6.121990686
5.969273708
5.709966767
5.897288825
6.249741929
6.356931268
6.594356452
6.316423054
6.424155852
6.210619281
6.162130372
6.047378878
5.727976476
5.851643663
6.031320568
6.116853706
5.994698398
5.951739252
5.838745781
5.867073176
5.779425349
5.438606929
5.324873819
5.540940895
5.528166591
5.654883833
5.710704649
5.518523777
5.543787388
5.906333051
6.048702819
6.040465684
6.251214873
6.274574922
6.058589911
5.639345429
5.634029284
5.898984392
5.992349659
5.585123649
5.729799305
5.631558972
5.7138141
5.652769551
5.806640135
5.950947673
6.324706807
5.771788954
5.852314031
6.016802631
5.91180618
5.867218153
5.919910534
5.715167562
5.898797139
5.959973571
5.637441267
5.45000967
5.580863985
5.80323062
5.624440779
5.512408184
5.857635109
5.802667751
5.738457609
5.723457111
5.99888432
6.044054652
6.208305389
6.031708199
6.060603461
6.05048031
5.957726117
5.854033725
5.886264663
5.726452123
5.7323792
5.697329271
5.79449654
6.048921227
5.974178636
5.639557203
5.646710251
5.28752273
5.622772422
5.546684911
5.682910087
5.641828703
5.651733317
5.985193513
5.825449652
5.811907938
5.788406541
5.849668148
5.849936058
6.075658794
5.984150556
6.004267997
6.125971038
5.5760654
5.677515565
6.02732315
5.972375537
5.946873386
5.976754904
5.839568653
6.007795096
6.034258145
5.840187557
5.621461359
5.745090456
5.930093553
5.913337853
6.211022287
5.711529216
5.629049045
5.801234643
5.844201889
5.686159888
5.731082574
5.751771605
5.766266234
6.062284382
5.924970157
5.729427389
6.238351782
6.159139447
6.34929229
6.332255647
6.202130325
5.811488147
5.697304147
5.460967196
5.667860438
5.829540447
5.719361046
5.388472137
5.472850877
5.695866465
5.835334892
5.887825441
5.97022454
6.128943705
6.065676779
5.767554646
5.58502214
5.581157956
5.81420326
5.701642992
5.498032441
5.950918837
6.097101647
6.070979664
5.97982795
5.875701348
6.129692663
6.083179717
5.726895911
5.680668859
6.182011629
5.886954801
5.884550435
5.960757863
6.159170545
6.174731981
6.265235794
6.123362747
5.72883272
5.604070227
5.753245444
5.643604843
5.515998548
5.779291604
5.873042398
6.084096331
5.899401679
5.972021998
6.399900396
6.442339224
5.710993701
5.926458691
5.910968569
5.755822973
5.708544081
5.724210351
6.052844271
5.843395542
5.860474536
6.126037345
6.045798133
6.11746269
5.690962573
5.603295687
5.689513105
5.640269679
5.768266776
5.818784586
5.970574162
5.905074081
5.31619525
5.635462959
5.901867226
5.73397841
5.562005737
5.694203307
5.714988725
5.573287133
5.571498628
5.525166899
5.976809357
5.850369042
5.768785896
5.944660733
5.729371237
5.933827471
5.904127212
5.832492303
5.815691886
5.688389014
6.447512878
6.481702588
6.261249478
6.083805071
6.113640295
5.705053231
5.723070824
5.864629628
6.124037568
5.747629336
5.523069596
5.706619774
5.893765477
5.915822461
6.037441259
6.24544985
5.974371771
6.129306317
6.229731243
6.304885476
6.325307192
6.116774181
5.98811696
6.077903163
6.152952171
6.293956311
6.088122725
5.840156721
5.614622894
5.869789105
5.98497598
5.77929243
5.995626385
6.039652553
5.678918954
5.711584056
5.861176099
5.812959139
6.516415608
6.2529026
6.043964897
5.66448004
5.752520156
5.805783307
5.960533696
6.277812863
6.27289067
6.443439925
6.441872103
6.021638527
6.029597127
6.187051963
6.395950507
6.546971078
6.428258293
6.32839964
6.43113291
6.113769906
6.059381273
6.049963143
5.818853852
5.98528817
6.297789986
6.324988425
6.313424108
6.019236628
5.84049345
5.792067069
5.574656872
6.020070309
5.766849931
5.916778674
6.152614427
5.973682174
5.815366598
6.092892953
6.153605045
6.333629237
6.106807898
5.94219014
6.125603592
6.034831814
6.07412943
6.091127704
6.023662637
5.812482546
5.445771247
5.417014294
5.48629894
6.243279256
6.344510616
6.216014652
5.794276457
5.677002162
5.957999556
5.602013521
5.686343491
5.972484529
6.011962988
6.167274624
5.740283764
5.611221337
5.652364026
5.805980578
5.738620516
5.513535616
5.831356185
6.091290591
6.575262326
5.99369512
5.65350028
5.801601034
6.277414521
6.032464941
5.866836263
5.807958191
6.130018585
5.799796785
5.819118014
5.974913039
5.78004911
5.609967364
5.939453482
5.887576393
5.921385848
5.969023362
5.647786473
5.898595921
5.872419199
5.859580033
5.705155911
5.500186039
5.650629081
6.165954112
6.517116891
6.404471382
6.492292717
6.201536313
6.263172973
5.915600623
5.420553929
5.726037179
5.953590344
5.844268598
5.940745284
5.864117456
5.864382178
5.653883565
5.771779514
5.73649444
5.964101686
6.128908248
5.920546327
5.955300625
5.506728309
5.775018181
5.890723549
5.722769313
5.676510243
5.686486311
6.053274303
5.784118225
5.629874788
5.625366523
5.773868394
5.945474913
5.903370193
5.795477933
5.798651486
5.625268836
5.566278222
5.579843533
5.551034164
5.801186564
5.966583524
6.047518829
6.032257807
6.224037793
6.30901821
6.300054403
5.643773706
5.697561883
6.369818614
6.150606916
6.026801293
5.582199833
5.51783763
5.492211495
5.506467869
5.69296325
5.800058644
5.787578314
5.690824878
5.66685323
6.027481059
6.318462436
6.426589366
6.300079184
6.104611411
5.743649011
6.165289092
6.090198853
5.857513654
5.883334632
5.907560288
5.806837921
5.898710545
5.79856309
5.696244981
5.72660832
5.905538902
6.047189816
5.926484888
5.934011927
5.605195367
5.818381945
6.138091153
5.690497768
5.645197286
5.82364752
6.065904398
5.984270649
6.238069604
6.047442013
6.060653092
6.15952611
5.907789569
5.745317828
5.519791319
5.57049577
6.070089128
6.361195303
6.079478744
5.890127757
5.922971684
5.861303357
5.821594142
5.781772505
5.868600984
5.799317987
5.541659169
5.238647162
5.471812502
5.783992894
6.218670957
6.27853127
5.985708462
5.772656733
5.661337218
6.21775802
6.021857559
5.872296542
6.005857232
6.062855196
6.078735096
5.801249234
5.504199003
5.670447369
5.449226665
5.537372877
5.826544105
5.982534277
6.465705387
6.460504921
6.653394534
6.649897759
6.589809696
6.368085113
6.019110795
5.616409464
5.595584413
5.684505829
5.717911607
5.464254124
5.759110723
5.879671795
6.168691744
5.860922057
5.871032844
6.003103138
5.671524999
5.377399105
5.445837361
5.612643102
5.959679454
6.160788361
5.904981283
6.243674207
6.14446413
6.015460332
5.999263015
5.852281158
6.16326231
6.236650946
6.087535285
6.189405897
6.176865546
5.837195433
5.589886633
5.577759657
5.811677584
5.773265297
5.730203698
5.953489611
6.446455134
6.255631592
5.97185897
6.037500968
5.886043744
5.875900331
5.686666421
5.929010707
5.898330854
5.793477978
5.790558428
5.765658272
5.723842867
5.777327925
5.994926627
5.672444717
5.618699917
5.730275554
5.99363328
6.284143677
6.020191455
6.134162121
6.323591567
6.066077783
6.083238911
6.241978608
6.096727324
5.912249028
5.844993891
6.305763806
5.973295977
5.960597194
5.914585226
5.768963089
5.493953339
5.613644294
5.63409437
5.838624662
5.776546113
5.643901214
5.996714591
5.920981411
5.773065382
5.835809833
6.01083957
6.269074736
5.864373356
5.987227175
5.786630491
5.843053897
6.140288397
6.166952103
5.58567552
5.513698063
5.347903212
5.603323576
5.869056546
5.887743934
5.869907891
5.795808978
5.70555261
5.72846878
6.164988531
6.003773158
6.391791942
6.074031379
6.181907885
6.13467206
6.063565358
6.029428729
5.9790177
6.057469469
5.670768588
5.5484163
5.865983411
5.866791607
5.987240811
5.888582854
5.762581261
5.76493425
5.673799501
5.289206703
5.532311277
5.663536129
5.686315361
6.00739978
6.223141016
5.942483146
6.050016548
6.117395097
6.212960991
5.754185168
5.944900289
5.984964063
5.76103638
5.81716568
5.673719469
5.810439984
5.892938612
5.540076779
5.599745988
5.802815219
5.924150317
5.948997463
5.773449979
5.503300043
6.022306961
6.168366548
6.091418502
6.101167303
6.292085495
6.649847499
6.288401903
6.030679089
5.904097549
5.921408679
6.419563902
6.096648417
5.799396153
5.862162845
5.469100817
5.821468806
5.810132351
5.577610747
5.705014869
5.861921949
5.511683715
5.521645536
5.794061302
5.785475935
5.883353803
6.230565403
6.096278826
5.926919984
5.944321659
5.915077722
5.958213736
5.914402014
5.904431559
6.104562276
6.007726099
5.978046509
5.804031141
6.048321041
5.913730652
5.703278972
5.862565735
5.937588781
5.807859454
5.63471888
5.616341307
5.582383015
5.843895408
5.895790114
5.857318674
5.823797512
6.405922884
5.663959043
5.515792186
5.624802147
5.906730667
5.709136718
5.801576719
5.758174299
5.69538209
5.846520179
5.899187195
5.662701853
5.752269166
6.035180375
6.181358623
6.059987725
5.566711903
5.992539142
5.950054216
6.121130167
5.982415917
6.362795869
6.128403725
5.790018797
5.464486613
5.793666129
5.823673782
6.102975625
5.785813164
5.583956986
5.5730991
5.466007108
5.691666901
5.737069214
5.584503267
5.732703033
5.713658291
5.962407482
5.97002296
5.984992488
6.610054888
6.221779504
6.304688863
6.185360211
5.928295569
5.808971507
5.594270977
5.62085599
5.807644008
6.115853105
6.003780125
6.158647268
6.071266369
5.887402465
5.982091365
5.942523387
6.040240787
5.962889253
5.881124178
6.091638004
5.947875888
6.191574526
5.836110781
5.893682503
5.725792444
5.609624881
5.669148795
5.682703745
5.67285534
5.685580402
5.821410267
5.832453661
5.877519666
5.850851057
5.532471503
5.622187368
5.731958281
5.804157186
6.080669586
5.995927743
5.860221446
5.979104125
6.132660314
6.016471893
6.025519085
6.05073361
6.164454479
6.182448599
6.130874715
5.992575752
6.442340267
6.097738642
5.771160115
5.524616356
5.779425994
5.520012561
5.530656343
5.636774992
6.031677417
5.830544582
5.782869539
6.08638168
5.783175324
5.766813461
5.784333927
5.579533885
5.703008612
5.731724449
6.10143219
5.994401559
6.015435662
5.934692164
5.95767183
6.33089923
5.980041339
5.985851217
5.818300897
5.733005395
5.683361113
5.538143965
6.050254047
6.404081199
6.309694272
5.976155961
5.637509122
5.894867791
6.00898359
6.168803586
5.892357069
5.858410141
5.686808027
5.56635213
5.598682428
5.571189608
5.460594923
5.548792382
5.696397603
5.990628719
6.174703169
6.167956624
5.895304473
5.879456293
6.070763127
5.72708268
5.414449639
5.647047634
6.11723968
6.13673619
6.22784846
6.15160475
6.527383604
6.007050836
6.122037525
6.359197767
6.061625095
5.672235767
6.036099735
5.875914729
5.677144589
5.923509194
5.722365729
5.606588406
5.928755768
5.865561767
5.937142415
5.692289743
5.887888451
5.811704675
5.909185719
6.057004805
6.148386135
6.132524624
5.725162189
5.788657391
5.945068889
6.023196419
6.369742151
5.924865337
5.945700883
5.728915383
5.861630828
6.189865542
5.920725846
5.97636654
6.201807895
6.09983555
6.165402522
6.177368683
6.274632404
6.375336135
6.325233613
6.212385151
6.229400628
6.245147448
6.417930485
6.06069516
5.975135825
6.148909632
5.931313166
5.882806606
5.404129859
5.543677724
5.931482038
5.847193926
5.602917831
5.548715824
5.560841629
5.712066527
5.867422836
5.599039879
5.969471587
6.12086762
5.705266128
5.710241593
5.636562534
5.63509356
5.708010514
5.671467319
5.448806611
5.266131768
5.627346143
6.090676129
5.830659281
5.444549796
5.58606385
6.01789641
6.151739062
5.815398774
5.531119953
5.795014144
5.663357167
5.778345153
6.003716809
5.882816874
5.833898161
5.864675817
5.53587002
5.37361177
5.317389951
5.487103529
6.184726334
5.873409911
5.571298489
5.849901573
5.969773331
5.886351892
5.436085444
5.698364613
6.168038614
6.312300115
6.27900573
6.517584842
6.429375217
6.088793242
5.884142844
5.762398458
5.551587728
5.525682824
5.674391789
5.932341589
5.789305312
5.928444394
5.934022884
5.907693039
5.80010404
5.863046111
5.926175765
5.83304567
6.012077537
6.097937812
6.01878396
6.241769948
6.2245443
6.136722386
5.892966417
5.821187318
6.1303208
5.957821479
5.807371735
5.868470833
5.353025287
5.472185697
5.627112979
5.766075762
5.915107824
5.976737964
6.135229202
6.428323851
6.078900047
5.874630839
5.828742665
5.905837035
5.802328243
6.119708914
6.170695324
6.083205043
5.692195453
5.608484786
5.695561058
5.648578463
5.878033937
5.985070863
6.027645457
5.885181924
5.930872585
6.035054754
6.290362398
6.085979558
6.007020041
5.705065518
5.899542777
5.893768137
5.705787762
5.712849921
5.870273024
5.500449368
5.756997727
5.686002094
5.689293974
5.911878658
5.940833634
6.115947551
6.193565293
6.119472814
6.088609828
5.835435627
6.098891749
5.710802121
5.844293376
5.722882547
5.718934904
6.007533755
5.848858833
5.875735658
5.959052676
6.040708973
6.053935752
6.159797441
6.2153484
5.835047883
6.591534693
6.181772676
6.221575319
5.948767682
6.102179811
6.279903173
5.983073024
5.864118776
5.772625714
5.790877466
5.882911344
6.062579877
6.250951857
6.244501256
6.046132164
6.087198932
5.690842666
5.556054534
5.706213399
6.228832798
5.837607086
5.910218782
6.146349765
6.394819169
5.860778038
5.745585935
6.09187875
6.044865451
5.876410809
5.635220524
5.669169115
5.849965063
5.57096461
5.639597271
6.072816675
6.325979118
6.39678466
6.650570773
6.785448877
5.966584607
6.013690718
5.800807511
5.761351855
5.693337317
5.86414658
6.193698749
6.051921275
5.781285542
5.767443058
5.994223395
6.143856139
5.978848665
5.981394025
5.721677581
5.63296379
5.261109179
5.602586513
5.711020066
5.984423646
6.205919607
5.801064715
5.62379781
5.577782831
5.555766591
5.533779736
6.00300389
6.07513605
6.523159355
6.410028565
6.385825816
5.839184364
5.907601985
5.793293536
5.589734365
5.560185784
5.933243343
5.796759436
5.958411737
5.780265568
5.941789747
5.894951176
5.902655381
6.011359291
6.054805132
5.9513525
5.781624451
6.217895018
5.919568727
5.629846755
5.941227975
5.705108693
5.627044895
5.504198807
5.542772825
5.567665951
5.574700506
5.293349499
5.086970034
5.07087142
5.611481794
5.624367647
5.536044249
6.053470852
5.766469472
5.752538426
5.608868389
5.678728974
5.556929369
5.725564388
5.80069354
5.816705224
5.783033193
5.882052881
5.565708849
5.621641216
5.898534315
6.345360222
6.595954336
6.691931919
6.083568452
6.290697191
6.200332764
6.004917806
5.713833937
5.88328476
5.854326238
5.477105721
5.683064775
5.79527579
5.852275589
6.090257693
6.570887373
6.232322812
6.454141483
6.32906535
6.413422776
6.153103397
6.004991224
6.111956033
6.051897577
6.214121843
5.993370664
5.934486358
5.826845786
5.796692959
6.084184561
6.44827225
6.19536988
5.842265513
5.891899847
5.866890858
5.867544555
5.961047853
5.822776351
5.678427354
5.64678175
5.578361559
5.835267104
5.934587638
6.020129125
6.28564933
5.845152202
6.131090645
6.297188023
6.044972356
5.831058978
6.017916937
6.363349305
6.430961054
6.367186507
6.170890984
6.081913148
6.104441455
6.336462937
6.304342355
6.565739402
6.90463289
6.218041921
6.408128331
6.571067588
5.999601398
6.082545367
6.082633799
6.124713145
6.283196398
6.170177314
6.360135947
6.461101857
6.242163888
6.262145917
6.312626032
5.881006214
5.890011085
5.918842421
5.865433103
5.971247621
5.798264721
5.786921163
6.149463583
5.901012226
5.690668042
5.862175215
6.057806457
6.375652766
6.018337662
6.116113983
6.34418753
6.44347103
6.501615302
6.077928237
5.757902001
6.010771301
5.680826576
5.487465392
5.302350841
5.520148522
5.602689182
5.612493162
5.685720489
5.570098868
5.691437376
6.060462183
6.521316137
6.447754053
6.193260802
6.186993422
6.260944417
5.956116317
6.06027398
6.197206519
6.265834412
6.113434531
5.998626718
5.735200481
5.740284531
5.531069114
5.807879701
6.089446578
6.240348566
5.792908862
5.99818342
5.905658478
5.822954866
5.785385517
5.682685966
5.908354881
6.088596171
5.96065311
5.792434498
5.738310574
5.755003999
5.681837271
5.772931816
5.437189308
5.566705633
5.76023758
5.802964334
5.832442833
6.103702414
6.098481279
5.685998972
5.964082716
5.695320851
5.543348752
5.647785809
5.848195121
5.727336881
5.804663316
5.935733484
6.006681984
5.638735108
5.398806081
5.443350873
5.821341115
5.623128306
5.786074776
5.632175946
5.741250368
5.590630233
5.707622204
5.900054678
6.075482696
6.012922389
5.990159219
6.085147723
5.874230999
5.958578655
6.208364701
6.177265646
5.94992898
5.78294631
5.804673336
5.629117099
5.577350254
5.613412638
5.641598175
5.896713677
5.761029475
5.867165314
5.9465079
5.832480275
5.800229089
5.803418623
5.985635706
5.92213398
5.762449692
5.594997062
5.226080218
5.395981515
5.434839283
5.572798445
5.779789378
6.066238864
5.999404425
5.707557415
5.846298117
6.063670165
6.10356664
5.937816282
5.87379294
6.114455254
5.928593796
5.861762127
5.938868236
6.035859256
5.706355452
5.950586073
6.153796189
6.020485689
6.052148799
6.225424251
5.666591757
5.792055243
5.93898135
6.079341548
5.912729193
5.736554468
6.063304787
6.02968024
6.126248681
5.729511523
5.789653112
5.649468377
5.31495011
5.586922656
5.58784535
5.645891896
5.905344296
5.919608233
6.034539934
5.583065461
5.257528964
5.521231424
5.791416146
5.938260079
5.971754511
5.845716003
5.803652766
5.78833295
5.793999913
5.438203963
5.304898656
5.344085884
5.599568034
5.567045184
5.81415738
5.878164938
5.74958033
5.68882569
5.834391974
5.994141223
5.742508649
5.666815925
5.724841541
5.744934961
5.816158511
5.645102818
5.382864439
5.21783163
5.267586178
5.659215119
5.925095251
6.097632594
5.852836792
5.98593562
5.203332018
5.484301172
5.758778662
5.920358562
5.665056051
5.513243167
5.409620886
5.488606602
5.800088493
5.872281783
5.795576841
5.609626695
5.410218089
5.545306953
5.680090691
6.11773241
5.830155191
5.675016409
5.569038261
5.886570439
6.201502473
5.872494491
5.703324732
5.608869981
5.457907208
5.906807003
6.0572979
6.021704821
5.923484318
5.96322617
5.868425936
5.722220763
5.966883754
6.003086566
6.012430382
5.898295295
5.92962766
5.831084796
6.007294355
6.038754692
6.198312756
6.078526812
6.095532974
5.866805262
5.701336901
5.793475448
5.882783498
5.707027504
5.910180952
5.940729071
6.365152311
6.213251864
5.884037222
6.006132249
5.867531023
5.996824361
5.846086295
5.95457168
5.919452058
5.670370348
5.459965015
5.154535439
5.34930628
5.420090558
5.887692297
5.831706262
5.758167308
5.711418088
5.576665207
5.835846514
5.780056026
6.110437517
5.823095179
5.668948608
6.006270374
5.830160734
6.060694917
6.162312421
5.681251874
5.74418981
5.824295417
5.611050947
5.649292157
5.72293905
5.762546544
5.470404317
5.591384492
5.762278124
5.634256145
5.655641787
5.900737365
6.038411256
5.912474768
5.882847946
5.809705389
5.392893859
5.451860206
5.627935402
5.655107546
5.741106363
6.06592508
5.79054353
5.467662432
5.497878202
5.892046711
6.009894219
5.900954425
5.636555983
5.724747898
6.092534303
6.04149953
5.810416656
5.88678734
5.531893029
5.54900039
6.254923181
6.061792998
6.073979601
6.267249796
6.377209366
5.873474806
5.781812098
5.843392025
5.860675786
5.953511149
5.874835815
6.07966569
5.937391378
6.24876773
6.008882925
6.204203405
6.225064385
6.187468978
6.342171027
6.372913944
5.724824789
5.847165707
5.84579401
5.746278397
5.54667133
5.819881068
5.932496851
5.785520729
5.873500319
6.037860543
5.889013948
5.909264736
5.886328264
5.779272519
5.847538754
5.743291016
5.501372556
5.571014761
5.670435867
5.871736517
5.959759893
5.881943857
5.970602613
6.101901813
6.071015852
5.904596513
5.826289834
5.911147097
5.732374874
5.878974402
6.17064668
5.9352656
5.825760337
5.646431936
5.73644977
5.73635434
5.796393721
5.928371845
5.835927336
6.052710415
6.055285497
6.298932886
6.173672693
6.180356379
6.290017451
6.335465458
6.38940361
6.280882157
6.28756696
5.975147659
5.895709516
5.63774824
5.535049235
5.886375002
5.697604862
5.594949602
5.614327521
5.567028228
5.602527378
5.592598954
5.71432583
5.791168251
5.747340264
6.236739765
6.250545447
5.995445861
6.129558446
6.295862723
6.134832218
6.41291896
6.359692159
6.350179253
6.14454128
5.77563275
5.74927287
5.868919469
5.769301931
5.623086785
5.8390306
5.938262311
5.973883399
6.0078403
5.90251346
5.81432312
5.674055624
5.77817033
5.914057498
5.891647197
5.884248072
6.063946491
6.357637409
6.054967366
6.043292214
5.982922437
6.075551294
5.976271718
5.927477984
5.920539854
5.733367378
5.972268091
6.046395153
5.835586568
5.987423556
5.819060449
6.052928794
6.125441842
5.9261644
5.950502773
5.917042577
5.965120757
5.819594406
5.894945385
5.825588675
5.648752904
5.423394675
5.785904101
6.100871724
6.172199996
6.244817276
6.212589499
5.980415689
5.858494194
5.761247096
5.877840019
5.806246177
5.685369305
5.69014895
5.443108948
5.710197264
5.51242604
5.663354592
5.821259843
5.731756846
5.794686492
5.860042325
5.958658311
6.32614842
6.291221818
6.499986778
6.198616868
5.452112519
5.641380898
5.75548548
5.954671946
5.792347055
5.817607232
5.781275632
5.622792406
5.667115879
5.738157587
5.782990261
5.745832008