/*--------------------------------*- C++ -*----------------------------------*\
| =========                 |                                                 |
| \\      /  F ield         | OpenFOAM: The Open Source CFD Toolbox           |
|  \\    /   O peration     | Version:  2.4.0-MNF                             |
|   \\  /    A nd           | Web:      www.OpenFOAM.org                      |
|    \\/     M anipulation  |                                                 |
\*---------------------------------------------------------------------------*/
FoamFile
{
    version     2.0;
    format      ascii;
    class       volScalarField;
    location    "0.0006";
    object      overallT_O2;
}
// * * * * * * * * * * * * * * * * * * * * * * * * * * * * * * * * * * * * * //

dimensions      [0 0 0 1 0 0 0];

internalField   nonuniform List<scalar> 
5120
(
298.1341127
306.4621502
332.9018835
332.152953
325.0724187
344.5495383
334.5943705
338.2975945
328.3104426
321.9898409
304.0491189
278.2733902
269.9106229
270.5664472
290.6578789
277.4832861
284.7747375
273.5081885
276.1571764
275.9397953
292.1164846
277.4092577
284.355467
300.3236754
308.3172747
294.8086797
307.7711623
263.2765944
282.7841744
277.1857273
282.9227592
298.8655623
291.0194376
322.1004305
306.6303337
295.5707024
300.013432
306.5969941
326.0185041
316.7989833
328.8924815
318.5809502
306.0145563
327.6686098
333.8003483
347.1000552
303.1821377
310.7654902
310.1568363
306.6535585
321.5538537
318.3479981
317.0181363
286.940082
292.7891453
299.6114868
291.7227953
289.7223037
306.1768883
298.8423209
310.9313486
340.6318458
322.4405771
298.3932915
282.8097168
272.642316
279.9763067
299.6794586
303.952628
321.8145384
300.7590752
292.0219123
302.8164763
324.5163455
311.1813636
310.3463649
309.3941625
287.0142311
293.5854416
301.7710276
302.4695034
299.4709163
322.4066739
320.7830959
316.0968519
313.5517875
310.2170296
307.5454162
313.3683297
286.3026106
295.3668544
308.8131256
311.8106344
306.0166733
277.3414108
271.903121
274.5407852
292.4928983
303.2160379
296.0180852
318.1899915
313.8610944
300.2307709
285.5595495
284.8091843
300.3567523
304.1316675
307.5899167
324.0766402
327.5758032
309.6114194
295.4631611
302.8802932
313.0734021
305.5965381
309.878214
321.5523749
335.8077381
303.0309089
312.3848452
315.2099713
309.2611752
295.9217075
300.8632278
322.4458798
303.4130021
311.1589467
301.2022586
306.9167099
301.7865139
300.3677542
295.7256375
306.7732286
295.2780369
296.6549893
297.4272044
288.895511
309.3277459
328.5487687
302.4657353
283.3043201
289.4222854
310.6952354
310.8112897
309.7837042
305.8550145
290.2319869
271.878835
284.1373241
313.2316669
310.2986665
308.3832367
307.9915529
303.1720464
306.0498131
284.9471473
281.8222208
275.0500065
284.6650575
292.7398891
321.9859166
316.7233061
306.6963342
279.948904
264.5388707
268.3105832
268.303007
256.4041397
269.1950695
263.101901
254.2554754
251.3826081
284.8412158
309.3014349
319.9623467
313.9153861
330.107177
313.4822023
303.6362356
318.189776
280.7591817
280.3405146
280.3540688
308.3168514
323.9282929
311.7500306
302.9086388
270.5926833
268.4755517
272.4923798
291.3189515
289.41645
282.094186
281.6990561
307.8961182
311.7936723
283.7006758
271.8472203
302.8042048
299.7386168
308.6452788
312.6626672
295.1458644
291.4864659
310.6373491
332.2180836
333.1506006
337.3127768
322.0674996
311.9465152
310.4177523
320.3093472
318.5412176
309.7800672
322.0704416
323.8098972
321.5635266
331.2521604
307.6906202
294.5473613
287.3824938
293.4168004
316.1236655
289.1705811
285.5458566
299.5034127
292.5717738
308.5492808
309.6310828
322.6467067
317.4465148
300.4356387
315.1710252
304.8647049
299.182506
302.3875539
296.6041003
306.8480312
311.8532121
308.7914739
304.4055439
290.762863
298.0319945
306.024097
299.8831027
307.7148093
311.9470079
316.6200329
302.3768989
301.5941824
293.4249802
298.2336989
282.1601531
290.3058525
302.6021732
290.7033713
279.5558456
278.3094454
298.6162244
298.8703623
311.1436265
310.8313243
316.9529977
313.9945831
324.0030976
310.2054165
290.3080015
289.0905091
291.0857948
309.3414462
300.3988762
328.4383656
321.1168146
314.0582735
309.6916816
306.1831027
312.1974842
315.3141294
328.1473708
312.030623
304.0350782
309.0548141
294.1897906
307.2288943
315.5401486
302.1022481
338.1346082
353.6259537
353.7608519
330.5583631
313.7587584
306.5365116
324.7669885
326.2595312
332.147544
351.1529178
364.7301751
350.1331042
316.8323048
311.6446352
329.8416716
321.1837492
317.5536138
317.1233861
311.5280957
312.4188985
313.2643133
301.1340348
313.4674793
314.4833169
322.9663515
319.655524
323.8499365
306.5504761
301.1551203
294.0236542
291.65536
291.997492
321.9010516
343.6354274
317.841162
316.7032139
317.3285322
305.5533283
336.5642756
338.2414349
329.3782192
320.5980117
304.0571403
289.0547364
280.7956701
298.4628086
297.6448562
292.4730818
301.649238
293.7515069
278.8974977
279.0456613
281.6244678
297.1828983
278.7820737
286.1874888
294.8534231
317.1021836
293.4779199
296.6191214
320.6486316
317.4918667
322.6433046
313.1785692
299.9250808
299.61216
287.2310815
295.6700595
314.3815101
329.4815286
321.008611
316.9034363
293.5171464
284.037731
295.4613364
304.7148329
304.4412326
305.3424913
292.745302
294.5199233
297.1686453
305.3055791
286.3456366
290.2016722
286.8516464
279.6135089
286.8429389
287.9873056
285.9985794
285.2119206
280.8486413
282.7153242
284.4125035
288.9567106
291.3712131
283.0994404
310.6981305
300.6878667
311.0908395
324.2892611
314.4354629
301.8996184
275.3988465
278.1148228
284.5658465
273.7043976
277.1900679
287.9806135
288.8010255
296.5286838
311.1951278
287.7400332
280.3318277
280.2361268
278.9940554
279.4454071
309.2358099
306.7191813
288.4239053
272.9046352
260.3266583
269.0770644
271.0650001
276.9725261
284.5260256
285.4928448
295.6828681
279.484496
276.4689905
267.4173983
274.5954064
295.1065834
299.9484361
307.7690338
295.8364121
312.7358153
302.0157649
297.0978798
283.2791606
281.6541839
275.2893147
283.5673934
291.9221657
274.38071
292.6352073
285.9415052
285.9739499
276.4339008
281.8043798
297.9350692
301.9010643
294.7626727
290.0349059
289.8354001
287.2244598
289.2529879
287.1036824
287.5192472
288.817787
293.7399794
306.6185822
306.9872253
305.845318
302.9899169
294.0303387
281.2070423
304.498447
280.2716096
263.0488166
265.3475729
261.4731205
267.6352777
265.4386735
273.7918226
298.5288917
329.4621151
324.5110578
306.5739933
305.5414001
311.6411787
316.0158581
313.1644211
318.2061094
294.363536
300.3569013
300.0134096
273.554869
294.4122695
283.1945796
284.1641657
279.7206209
274.4142785
278.0268894
276.8923504
292.4306912
302.3271797
300.4064699
292.2410793
290.5465494
288.0779816
301.8044967
314.2778431
296.432628
309.7649129
310.1814898
331.7175103
346.5914142
322.8430288
313.570682
311.7095624
303.8034177
292.9597463
290.4887961
297.0674983
278.4576553
298.2172834
292.8195435
294.6199335
285.8344485
308.606483
291.4232478
287.2623343
286.0964792
286.1310017
266.996068
274.5475314
276.1221375
272.918911
264.7423104
284.3308982
297.5423994
301.1167965
294.725044
262.2374264
332.6023116
327.0956445
328.6669475
313.5861342
316.9747075
309.0688817
316.3575845
330.7566889
349.061347
325.9002848
322.6268242
302.4304446
310.0167236
296.688012
318.9943414
312.6392157
287.5476095
291.4401798
293.3832085
317.0208149
288.2940093
303.2301023
323.1226173
318.4677259
326.4872206
318.4203008
307.5858345
306.0800178
316.9386004
309.7270874
317.2871531
320.1622215
290.4002961
294.8755611
306.8990376
337.0349899
328.8953294
297.8018984
295.0107785
285.8995979
293.1207977
299.4654503
288.2450306
295.5218664
303.5880984
307.8732888
315.6916647
281.6376024
281.931873
289.1121546
294.5024309
302.3462273
302.5012069
294.5791528
298.6235699
311.0025538
317.6547901
344.1006705
318.4588917
313.4340023
309.5467796
296.9842881
301.3480521
321.240568
319.4910748
302.8434653
308.6838866
306.4277185
310.349532
313.1958277
316.4467031
301.5391016
302.3406687
314.2410784
307.9554933
303.338494
309.9386915
300.2164128
299.0202066
311.5459235
319.0903822
305.938829
303.7334808
326.288501
330.4093305
323.0964108
313.9627752
315.1016431
314.7808947
288.9357646
308.1861948
336.3100854
322.4107502
312.72099
297.8635106
308.757891
310.9551834
344.0503251
341.0659049
307.2361374
334.7849961
345.0054349
344.4225804
340.7635322
333.1358171
316.7340632
324.208199
294.9446287
290.8119534
294.2374483
308.1425467
298.6189843
286.7513745
294.840173
305.3463749
312.9002326
321.5048437
307.2781442
315.8372995
323.3599019
301.4153167
301.6306057
309.0611278
292.1175222
275.0477433
285.1325024
286.8109358
300.736845
290.2282703
306.9342275
302.2634044
291.6557196
305.2256837
305.3970502
301.5184549
289.2470913
287.9093921
298.7730759
310.4617215
304.8286894
306.5981798
300.5603751
280.174007
262.3120214
303.3619915
307.4813719
291.1706982
285.5388221
292.5913141
281.0475553
288.3655117
305.683182
314.787635
312.262253
288.8537426
272.4991425
286.4603616
299.3203276
298.1232908
308.567319
273.9636072
269.5245717
264.1046094
269.7695209
270.5023866
284.6498538
295.061389
290.1996858
287.8251896
307.2533498
288.0939144
278.735651
281.4977811
269.3870008
278.4747247
291.8959538
281.8667992
272.5235986
270.9450678
276.0670401
292.245097
283.1430531
291.935898
284.2272491
283.677992
278.9589724
281.4108802
289.7642379
293.4314928
284.209452
283.0002464
287.7498807
300.2499281
321.3339252
310.5833216
299.8506765
282.6105465
280.8603473
291.5569249
284.6802987
294.6839985
291.8069688
293.3276597
303.8477575
297.8526116
321.3656974
304.519124
290.8457589
309.2997928
293.2186576
293.3413887
298.4266501
293.6347643
284.964638
291.2790845
303.2378846
313.0619726
302.8132182
266.8544183
285.8334204
304.9585294
284.80198
274.7342474
290.4803372
297.2574228
275.7150819
270.4942525
275.2167868
281.083843
277.1483124
292.1129548
319.3850919
323.6846688
328.9094968
324.3152711
310.3323956
297.0300249
294.8595615
307.1031777
310.4401327
313.36196
282.0177484
291.3477435
293.56182
292.9176629
267.7493536
269.094832
267.3045962
269.3470261
272.3239872
275.3717084
265.9183954
275.3227465
302.2103792
288.1912627
291.5870083
292.285248
311.479239
308.6612264
314.0900891
298.6571054
312.9224492
336.3832809
353.1687535
344.9074176
337.1582976
324.528716
295.6553746
312.7978005
311.5527684
291.034092
288.0952163
291.6541135
276.5615315
278.2254148
299.7444654
321.4193742
329.9860316
304.6954293
293.4167614
300.8184075
291.7484956
296.2050464
288.6751211
286.5132147
285.3350193
291.8176998
285.7663979
324.3144359
311.2465572
312.0604213
309.22793
305.5576977
288.7164899
309.3830198
292.3663552
281.0450622
299.5609247
313.7992032
314.5367902
311.8991091
300.1685995
305.6548666
283.6090561
292.3784173
295.2542357
296.808156
275.0220116
276.0523369
263.2531528
271.1150877
286.3263852
290.7969987
311.2981335
309.4323452
298.8515436
312.6132561
324.9191905
321.9152336
314.2218568
285.8638808
309.1285087
327.1345772
333.1388719
350.9520883
327.8518349
345.9576964
324.2755648
304.9355897
306.4918722
293.0965816
307.5604621
305.9076222
301.9164076
301.5463252
306.326466
301.2323798
295.9198761
298.1776996
292.0184817
313.3959821
305.177944
294.9303362
301.2269345
308.9927142
305.9576966
304.2398581
287.0594988
285.6803799
294.2982246
316.3731991
321.634055
325.8514916
312.4875791
280.3837951
302.4774507
295.4287045
282.8457879
284.4537507
295.3962984
288.9592161
300.0891409
298.6732669
289.5948764
288.627552
300.5288163
271.148021
277.9814203
264.8213843
257.5773366
268.3708461
297.4527047
314.1820015
328.8533867
323.0984518
304.468133
321.6230635
344.8438813
329.0526034
312.3469158
307.0632827
286.0455054
278.6343801
258.9981444
260.2486918
291.2307999
301.8095311
297.2626343
294.4583818
294.668736
313.87272
300.4677364
284.4475782
284.7778425
284.9054155
298.1592117
287.2318282
280.750606
312.2877799
320.2504329
297.4931522
298.4423509
290.8047545
285.7257001
283.1733113
289.2989489
284.4339462
281.9051086
294.9954229
314.497342
312.4834822
322.9650935
344.5362618
324.2097962
306.2919063
295.121493
309.7887865
306.3725617
272.7178752
284.3963858
304.0432414
288.5983154
288.5506817
294.6458182
288.9791489
291.6457574
276.815893
288.4523282
292.0292213
281.3976078
289.9452564
298.5700382
317.0265036
317.7097224
320.1407593
324.6078763
311.0562931
316.3518794
314.2250401
301.373206
322.3365263
309.4598269
297.1671627
331.724713
339.7349338
317.9943535
298.220513
294.4208187
301.3807522
301.1722345
275.3637672
288.0980497
303.2415197
292.9734445
299.4688045
293.8250622
300.7032819
301.1629942
294.9550712
303.7718772
266.6124796
273.0851629
296.089934
308.1319427
278.1485109
290.4971346
285.1832011
284.0704204
266.1770247
290.9145059
304.0811388
304.1546462
297.1281625
305.9049188
304.8951524
283.9706961
298.4017664
285.1995402
277.797688
275.8054835
276.3021505
275.3165982
292.9807748
289.8582015
275.2722195
272.0150822
284.760125
289.5350758
304.394947
302.4136936
305.9894027
322.6110817
313.3238523
313.8368466
326.6940514
307.4140361
314.1465742
310.4108394
277.7081426
272.680652
296.7437132
314.6331442
303.9051157
295.1309954
284.3105503
271.6259599
270.0995038
276.7741769
274.0283907
293.1134909
291.0987557
284.4876468
283.5543426
259.9588283
264.2196748
281.8655831
277.5598935
275.7320785
293.1098542
292.3538891
296.5071867
291.7301933
277.7971988
277.9979172
274.1367914
287.2062324
298.0002276
296.4940212
307.5231339
282.5883278
297.2880498
293.1300693
275.6483592
295.3812789
294.2426543
293.8727454
298.5334321
289.796486
297.8715765
303.4113743
273.9639223
287.027181
287.5203177
283.8044235
285.5200271
291.4665383
320.1165773
326.0490799
320.1780547
286.462379
281.2436357
287.4393032
324.0859506
315.8890595
292.2523488
315.8678315
313.6302451
299.6344042
287.30686
267.9405041
293.3305234
297.1037324
294.67426
295.0495039
296.6900316
313.2719478
296.1550825
282.8220614
283.2971661
301.6342307
315.5152712
305.2586821
275.5750251
291.1514208
305.5732371
314.3173891
294.5241711
307.5220587
298.6745362
293.3239196
299.7013067
311.4769912
290.8603899
297.4166443
285.112619
280.0527106
298.8589965
294.5228997
284.7013054
285.7094412
287.9276123
296.5537111
286.6759918
279.879513
266.1602692
281.7857148
277.5596536
276.6543245
272.2083958
284.9730928
324.250753
315.2039224
297.7436099
305.8481341
297.9783493
289.2608884
285.8580757
307.3242666
311.8899266
322.8213227
314.3970532
306.9540661
306.8464722
295.9964261
323.5637858
293.1617869
290.6670783
306.4141115
308.0292362
309.3317966
299.9545278
324.7726105
339.367189
336.6323567
329.097107
315.9867681
294.5590004
302.1046653
306.2586133
316.3751025
321.7824022
318.1421098
303.9340729
291.148123
283.4736991
281.0340038
299.3533607
277.241494
279.7610668
287.4451425
312.9950387
312.2348751
275.5775137
287.4721412
290.5401978
318.009397
323.9263561
328.1728783
338.2930809
332.8538583
312.4418744
296.611727
306.4426889
312.2574879
281.7195781
261.4980416
250.9601119
283.5532809
288.203172
309.9544083
284.8913703
295.4704869
298.1805105
298.5697782
296.2893995
298.4854714
299.4964066
313.0576569
329.1994923
312.7752616
306.0784143
289.93931
292.3492129
309.5241839
334.0435472
309.315286
290.5189785
310.8218103
300.4267942
306.5688385
279.2300658
292.1693092
282.578015
296.4486473
303.3273146
299.7098476
297.6266357
293.8474625
310.6709815
306.4043546
277.0490327
256.4250078
267.2182981
266.7729037
271.0383336
276.3170453
266.7295664
273.1223442
270.4211712
280.3419235
317.5148175
326.7250684
315.0156887
303.346345
283.2964613
276.1466094
296.2160641
309.2467989
312.6514399
285.4523937
294.5154999
299.0888322
290.1389568
288.3542951
276.5177814
287.7372534
310.2702329
299.6448225
301.9594522
300.6906488
312.4927467
312.0163789
280.9466112
279.4068108
273.5680892
266.240319
266.0780916
278.5073955
298.4639521
320.8317624
327.3472183
321.0819353
305.3844339
317.0902992
309.1592683
302.9809691
293.0604729
314.4053027
318.3223223
310.1091337
329.6303822
337.5968626
331.4779
322.5846537
293.635272
293.8718981
309.8233959
283.8481533
272.6426874
301.5864159
301.8717436
301.8459174
287.0046789
290.209258
296.0363184
292.7185945
300.9650684
311.4630978
320.8192099
328.8993552
314.9980753
316.0983081
305.324641
291.5904345
266.2035848
271.0308482
299.3098764
306.5221894
307.6894297
308.7847676
307.768346
300.640275
306.5254233
305.6495217
305.7719721
301.1954112
306.4924018
304.376065
295.5486476
319.5417943
320.4872212
301.3289534
288.525243
275.8457369
290.3260879
289.4663375
268.4954507
276.8311045
282.5417137
272.6578302
277.7123782
292.4715497
300.5131308
271.8070189
297.5388271
304.8450936
307.7233716
302.5173428
327.3901631
326.5736733
305.5429264
302.2693536
310.7371927
299.6802325
284.4725094
288.8976359
301.0138002
299.2059647
286.8462458
280.7016116
297.4546682
297.0303409
300.4024309
306.6278429
276.7422799
271.1151893
293.8577539
317.3117455
326.3156925
322.5365454
306.1053213
310.5097853
287.253869
306.1375681
318.3238519
327.7072679
312.5823119
310.2414422
282.2937004
302.4641256
297.2937768
292.1878911
299.8068491
309.9817799
337.5848848
333.4845826
337.7895279
335.3299146
305.484281
298.4284892
321.9822139
299.95004
300.3960669
311.4750297
321.6091724
342.7434164
333.7650243
316.9040757
332.4570784
306.523822
282.8829077
295.4306563
287.7704692
291.9154678
289.8029319
321.9037029
300.1303643
302.9327629
315.838487
334.0849566
301.4151783
293.9203189
289.5448689
313.0335853
324.8544413
315.354054
320.9406176
321.1089459
319.6557424
341.3230679
312.4654563
305.6986896
294.557943
297.603013
278.5144973
260.1144187
277.7809328
296.0116109
306.8660335
308.6188266
266.8026832
290.4149834
307.944971
306.8251606
321.5562352
294.6191537
298.6504439
317.7896281
305.2970233
301.940576
323.9595125
318.8088781
285.5109432
292.1449768
290.4935514
262.8333458
264.7552385
275.0971461
271.1874426
275.8194958
309.8983638
315.8666593
299.5745821
289.3094664
299.4109971
307.936175
312.7634618
288.4792252
296.7816251
317.1396003
302.6287688
299.3251433
312.5957321
313.7146959
314.3183289
319.0892124
307.0059899
313.3261329
320.2819711
321.2048188
261.6068757
293.9827732
300.6454619
294.1421704
289.418325
315.8042823
320.505828
315.55415
309.0409727
296.0581582
302.2926176
313.7679777
312.109004
299.8797865
293.0498123
290.5953265
313.0488952
292.7022289
290.1282215
278.5909246
275.678318
257.4218531
269.7479842
291.9706312
316.7548536
292.5747663
290.606072
284.4550047
298.593732
322.4227899
326.1615335
335.584711
313.7128017
311.3594034
321.8953847
320.2348318
304.1008601
290.2125757
292.5761281
279.2370498
282.71793
283.9610154
280.1355636
282.0807416
281.1201443
304.1180358
314.0401759
314.6931953
317.1502394
296.4392523
303.4918903
297.9644568
289.6460904
300.3454566
293.5102333
302.2011873
303.3738563
310.5058556
318.6033679
310.9473253
309.8571615
291.3473031
307.7155199
300.8529837
291.3860622
301.4601194
304.9239571
309.8236882
317.9513436
319.4016951
307.9722252
302.5931998
303.5010085
310.0923701
328.4167113
328.7498369
316.1207012
314.6873643
293.7729557
302.606381
301.5129651
300.9229535
294.2068078
294.7797961
294.9805136
304.1780772
302.1585315
308.3266035
297.7141545
297.4346042
269.4172744
283.4497805
309.0181355
316.7596357
297.5273923
323.5607515
327.4732344
333.8652337
305.3917984
307.1918252
310.3718961
282.6268738
303.4998045
322.3602389
326.2232901
321.9967124
321.2896083
324.708881
294.004198
295.9455776
286.3210791
291.3471661
286.819905
268.6002738
292.2776354
285.8091717
296.137499
301.8418625
303.4001709
316.5955811
283.5566238
288.5573262
303.0286476
316.4716671
319.32896
303.0417211
298.1071307
292.0263082
319.5344857
323.8859239
322.7226889
318.907906
320.519806
314.9372018
324.5824319
321.6703134
310.2138121
296.7000006
292.1223822
286.9125138
300.7218697
291.3192631
277.9274311
292.5865143
326.674454
320.1797032
302.1835126
284.8321098
280.6498232
284.6137657
270.3906315
287.769679
289.9022481
297.4596208
304.7019309
322.0259956
286.7770646
297.1562658
315.3856651
305.459839
305.2465038
317.7302079
293.4957682
288.0274514
288.7438469
303.4108274
296.9219213
295.6850907
316.1455905
296.0683799
275.3304453
267.7208883
291.2059208
296.7718238
294.6957724
302.6714529
274.882732
298.3737417
303.025843
308.8331458
297.19214
293.8869752
311.2532314
311.2850131
290.9726293
280.9629593
274.4290912
283.4111754
284.636305
281.2451715
292.1183272
291.7805821
283.4743711
281.5859629
263.2126157
278.383197
280.9706243
274.4963373
289.6060838
289.0597981
312.666414
308.6838896
290.2207711
303.620574
313.2806109
316.089225
320.18811
313.2023497
293.8238768
306.4092328
288.3113769
275.3963596
296.4060386
299.7347921
318.6523519
320.5140833
318.2307362
304.7277399
324.7542765
330.747568
301.8908969
286.5783798
301.8780948
319.7404938
319.0797465
285.3611867
285.4121996
316.5593369
332.2069134
319.9176643
321.500767
316.3783852
310.8548419
294.0079276
285.6683845
287.6441884
319.0368178
325.8827306
324.0235973
311.4613572
299.2514021
311.9028589
327.5788142
303.1836817
286.9008108
300.5428027
320.5698938
295.1809786
272.8813244
272.9316246
275.6054181
271.105589
270.1063703
284.0610309
300.4638994
304.3638106
319.5186206
322.0594876
327.2866193
313.8314404
312.4890629
312.5400034
315.3543838
320.4842448
332.387174
323.1048912
314.1547221
316.1178348
304.7405531
284.3910486
287.529996
276.5905619
294.3932593
301.5132152
310.1021515
305.4464421
290.5667952
301.3636295
300.6722275
300.2642244
337.6924318
323.1272738
319.5701697
316.6725347
295.6245406
290.9891137
264.035536
251.8919843
266.2245959
277.3057712
282.1184373
272.4150496
295.2460946
278.9422068
280.8192518
275.4587308
314.2412206
319.7059309
318.5912406
326.5130234
312.2613126
306.6156475
304.9391529
310.7737957
299.7811566
297.4134921
276.2384429
282.9248881
279.0935022
293.3738488
285.4395971
291.1165975
286.2267697
293.5879613
293.252439
323.1383258
310.1221441
320.600803
330.7797373
298.5618923
287.7506998
281.5043167
282.4037466
289.4714416
300.790295
307.9136245
287.9104738
318.0467877
306.9943751
297.7208513
303.0299514
292.0254733
311.8199191
312.276445
303.9797626
300.2232384
291.7184659
280.2639384
274.3984658
301.1667182
295.5151297
299.9051775
287.3944226
291.3478597
288.6902895
280.3514092
293.4632675
302.631412
306.7227897
302.8768079
290.7943734
284.1783464
282.361406
298.0252287
291.2323597
294.1288715
319.5826752
333.7810204
327.385414
295.5196996
311.985171
306.7529171
289.8810088
268.0913489
297.674386
295.927579
270.5772512
276.156115
287.5691936
308.7692555
315.2948378
315.1224491
325.142685
322.2926702
304.0281881
294.4816971
272.9825651
271.6726897
267.2324645
313.9064487
295.049924
309.3847969
305.0167105
315.329533
310.6245258
294.0869494
313.4932821
316.2292537
306.8320579
300.6667692
291.0044725
312.5891686
314.8002864
320.0795906
321.8830631
342.0766627
323.1197314
318.4517745
297.7740413
279.8307026
313.9979361
326.9845346
327.3195742
335.5171468
330.9423798
293.7767971
281.7412128
257.3137875
271.4541548
270.3954672
299.24062
299.244447
307.6649254
312.044324
306.5429593
288.1900026
290.0941004
292.2632248
301.8556833
292.9223306
297.7016314
301.6180976
301.3603681
294.4595232
291.0806533
302.0281674
291.1156484
310.7423464
328.9165854
295.2483646
298.0691835
304.2514443
319.6533173
327.3136754
315.3321261
311.716379
324.9204021
349.8745038
356.3666002
322.5535454
311.8360163
316.8311907
284.2927524
305.4376914
316.7111365
333.6962807
313.1443885
309.5889411
304.626961
315.687225
318.4854693
329.7495703
314.8242645
338.8534525
326.26309
314.1325875
300.3038377
273.6434887
267.8094736
288.6235983
277.7315187
284.2795419
299.3184029
328.581828
308.7260691
298.327033
316.3708414
304.5107336
305.8059247
289.7422981
284.894343
271.0668899
289.7262917
275.6225051
286.1856906
279.9854788
302.9157486
313.4172661
314.1269705
294.9800003
287.383783
300.313105
290.768834
286.7205411
294.7419788
280.0256186
261.0046363
285.5268635
300.5839253
293.2121853
295.5745682
297.8990881
289.0068178
301.1504114
307.3439334
308.9527655
321.8993623
289.4783054
280.9022666
283.868053
279.4005946
298.7519091
289.7786253
287.8357347
298.7430365
303.0018854
308.0443188
285.3098377
279.6759349
271.5025831
283.9376863
288.1019486
296.2809482
285.3729986
291.9024898
272.2788621
264.4147971
290.3323041
284.6889341
269.7190493
299.6165584
293.9724163
294.4234802
284.8421452
276.0282034
273.008188
258.0526774
243.7486373
262.7628178
277.081411
275.0090614
303.0096488
299.9880356
306.9463945
296.5758045
299.5993554
307.0458717
308.6737185
286.1580101
300.3161425
321.2140784
315.7820102
319.240426
300.0870728
311.0509522
304.3249307
299.4279783
277.4131213
279.4523937
297.1689119
311.8991044
294.4405314
315.815473
318.2348626
338.9293086
321.9179327
307.2902033
314.613962
310.32722
317.3244395
314.0416958
296.5599433
277.7677253
274.0737833
280.9250217
277.5669627
272.6954388
284.2904215
282.0393126
278.960432
271.1181295
282.7358917
282.7258413
305.8271036
312.9294981
330.6209264
301.0710901
280.9670368
277.4519797
298.4743186
299.8887508
305.214694
299.4469402
302.3219276
315.6317553
313.1295103
310.8037074
308.3501278
305.0377682
300.9556334
303.0113439
310.006426
307.4343468
323.7909078
325.702128
308.2556632
333.6112561
334.1138814
305.6963064
303.73509
310.5032664
303.4325284
308.9802859
317.3975525
309.5486246
299.0553239
312.3027635
315.0654762
305.4125619
311.4532939
309.5992491
323.3554561
306.9517067
283.2868179
299.8384306
285.2226064
287.5774703
287.8646966
291.6027722
300.7198138
313.1674027
300.7601079
294.9635584
298.1585349
290.5707582
312.5082031
296.8159683
284.4387515
289.0894774
305.8773745
323.175811
337.3759674
342.2702808
336.0803459
313.6275838
316.5248317
303.78401
303.9268715
309.8034566
303.8748717
310.9236178
308.775133
297.8889981
288.7965894
291.9380926
303.5574885
315.129535
338.9434521
326.5882463
327.4664318
320.4110696
310.3324837
284.3093373
285.2276565
323.058259
316.3208273
313.3984003
308.7482851
309.6305905
311.5407421
302.829153
300.8913545
310.4015879
307.1296323
289.1741709
314.6399858
296.2476362
267.7019244
279.954809
278.9912615
275.2258451
315.8914121
308.716038
308.3043743
296.0578187
315.5562668
324.1624661
302.8319389
303.9206285
302.4257274
305.8134521
302.6010368
310.9190551
338.6325479
314.786185
323.6574176
324.5294526
306.2285403
298.0800481
288.745081
312.5772413
304.6058453
290.2701022
276.9050272
272.1056697
280.2193598
294.3438509
294.4183905
297.4639014
306.3304471
322.8653095
337.8932282
345.2724273
327.7364893
324.2688433
308.4273621
300.0807097
305.3252731
315.4358415
296.6475527
285.9665833
305.2643929
303.423257
292.3374833
280.8802786
282.3797074
305.1081676
334.3435072
343.2012537
339.8695995
314.633123
273.5181658
275.4286947
298.6757944
302.3671051
338.7511209
334.5308303
328.210422
315.0218642
351.043387
358.8750144
349.4468548
338.4759028
327.0423426
319.3587966
326.1173055
329.4126019
333.5450414
316.146462
323.3831936
287.191214
322.1740491
328.8954969
334.1255045
319.8251995
304.9077664
312.3933803
318.723557
332.9996646
343.23275
304.4474162
308.2639549
311.9020502
311.8391284
299.4686661
288.1639447
288.3184688
281.9555468
284.0328161
281.0624627
291.9657467
286.5044226
289.7896989
286.7771563
292.911724
284.9049682
287.9562158
276.7657752
290.6416909
297.1173955
285.9451024
290.4495492
300.5173368
294.4310459
291.6274241
276.986099
280.1650271
304.4866495
291.7718313
298.7673378
310.2627455
308.6076355
302.5034721
297.8025008
312.6225949
345.9226537
361.219157
344.8870857
335.9315082
306.1459965
307.4506683
309.1591988
309.1066401
312.6476227
314.715153
304.7016066
292.9631453
310.0268662
328.6932333
304.8663413
308.3372749
302.0479716
304.2374538
325.1186924
320.5449038
316.1557735
319.1470328
315.3865628
301.8431484
297.5686881
314.1213395
310.6059605
311.7796104
320.7725614
302.7517238
295.2551674
285.6138718
302.8416085
304.2923419
301.2019198
340.1271365
334.3224758
320.3800585
316.1866859
297.7055828
286.9382178
302.9740137
319.0035327
317.9725321
289.6700926
284.9016319
301.2951374
308.159174
308.9942008
284.0412021
276.2415238
288.6649325
295.8946542
316.3665123
328.3460074
287.9448999
289.8641101
296.7521154
282.2927188
266.7849614
295.9866519
291.8699452
291.3981747
298.5643893
308.1733754
310.1648855
293.7765877
309.412192
301.8240757
307.502524
294.5785581
286.2519648
273.4771691
278.521981
277.8040279
315.1985944
305.337016
314.6201205
303.7088644
323.6628327
324.163606
309.0297075
318.1224283
312.9829172
288.1833197
291.4847261
286.3945128
288.9236955
291.7057444
292.8144813
285.2674612
309.2593509
315.7402621
310.598171
297.2878941
282.215841
289.9885439
287.3022481
295.2488749
299.4393658
303.1940249
300.7144166
302.9399078
304.9075686
309.5829439
287.0196749
297.4499117
298.7079515
307.33071
297.6934922
294.8690868
297.5412199
296.6342164
315.583692
292.98937
303.8270543
296.5483597
302.5564883
296.5521361
286.5475243
285.9157865
271.7654556
277.7020184
279.3090555
299.9315309
309.1537092
311.4353115
317.0214971
294.8802079
303.6996481
323.5864132
315.9583895
312.6569147
327.0374407
329.3544395
310.6197724
297.4437155
299.2620738
267.8257993
276.0040632
295.699577
285.7288585
274.6814481
273.2175677
273.2416715
273.980768
289.072512
292.4679843
304.0172617
304.3813692
295.1198982
294.2589044
305.2184856
299.5293461
286.9502077
290.3338043
301.3798463
304.1783926
299.5438883
307.7935441
290.441774
283.3077665
297.3451373
306.5089562
300.4995632
292.2541218
300.1503945
295.898914
303.7744084
305.2484338
290.2697644
301.2863682
303.6335962
308.8507964
307.8158798
286.7113568
294.9701564
287.8999537
306.8718733
296.9522435
298.6930866
304.118926
320.4972726
309.0930134
291.1612593
310.7549018
312.3847343
303.3951912
310.944348
312.606615
299.176891
282.0443643
282.2254782
284.0033464
273.1323084
322.223858
341.4381336
323.713892
315.0638713
318.2959818
318.8331445
317.9955133
317.199886
304.1683598
324.1469263
299.2163376
305.0334333
323.9632113
317.0564768
320.8574514
320.6229735
294.6261525
289.8911428
288.4657181
312.7720026
348.7814406
326.4244101
330.888219
312.754421
305.8573367
306.6438115
306.0680136
312.129328
322.085001
303.9694362
315.2432621
310.5510299