/*--------------------------------*- C++ -*----------------------------------*\
| =========                 |                                                 |
| \\      /  F ield         | OpenFOAM: The Open Source CFD Toolbox           |
|  \\    /   O peration     | Version:  2.4.0-MNF                             |
|   \\  /    A nd           | Web:      www.OpenFOAM.org                      |
|    \\/     M anipulation  |                                                 |
\*---------------------------------------------------------------------------*/
FoamFile
{
    version     2.0;
    format      ascii;
    class       volScalarField;
    location    "0.0006";
    object      overallT_mixture;
}
// * * * * * * * * * * * * * * * * * * * * * * * * * * * * * * * * * * * * * //

dimensions      [0 0 0 1 0 0 0];

internalField   nonuniform List<scalar> 
5120
(
301.361422
298.3028196
307.739287
302.0951741
304.1559232
303.7509413
299.4740158
299.0624731
300.3148566
309.4586127
303.0154212
290.4941408
295.4024745
304.7121641
306.8419656
311.1844829
312.1062332
307.051063
307.9924772
299.8972812
295.8551857
292.274265
288.5186317
294.1339463
307.2300185
300.3654353
300.3805506
290.6627576
295.294442
287.851808
289.7242596
289.662399
296.4287821
300.8289012
298.5649263
305.8307677
301.6910449
303.2021265
310.9769919
309.526542
311.813849
310.9898613
312.8671344
310.5927691
313.0169825
314.1525067
304.4402401
304.0324623
301.7187188
306.7827304
307.3340974
306.0588028
306.8511765
308.4286227
305.0920609
297.9282514
290.193286
293.4651243
300.1777263
300.7535948
303.5785975
300.7039474
299.4690093
290.8905501
293.1605575
288.5579688
279.0751484
280.4996719
293.3361496
291.6362936
283.3394842
290.329474
294.047428
297.3334885
296.5453012
304.143289
300.7516268
303.3556927
295.7515421
296.4546889
305.0463853
311.3123477
300.5210609
291.4099329
286.6816787
292.2222947
299.8960635
298.4947008
295.093961
290.0070364
283.3557135
292.978644
294.2407419
293.7292987
279.6959007
277.6560008
279.90596
292.4596683
300.2234373
297.9323937
300.3688879
301.8868064
301.0228482
291.3384402
289.9927181
293.5326991
289.7175574
284.7057675
286.6625011
293.1955447
299.1966431
294.5399681
293.0270488
295.6959464
295.4479187
295.8959767
294.6302231
302.2169805
298.4767029
302.0927333
299.29172
302.0735644
300.289768
308.4070648
314.0189961
296.0863977
298.182732
305.5460196
309.3751777
302.7108403
303.746488
307.0727859
308.1734449
308.6443486
310.9471681
313.6852156
312.6469754
307.4820604
313.013602
301.3847736
296.6516909
286.8595003
298.1809803
306.7198594
305.7871292
303.5638532
291.2244997
293.9938237
299.4523326
304.7111862
297.1230094
303.8800113
302.1901918
309.311637
318.7346709
307.082266
320.1964041
319.224147
308.5177624
308.065295
303.0696933
303.9309166
305.5073655
295.3159814
288.122069
284.4401294
291.3281328
283.1637321
289.6180288
296.4741466
282.2512619
290.2353659
300.4824402
309.6209963
309.3748894
313.3995697
325.4118309
303.1466979
298.4461063
301.2330198
299.3851472
302.1185971
298.9014625
311.8290908
324.6691102
319.2339836
318.2779038
310.7832744
301.2804216
300.0703435
298.3607416
298.147447
295.7475377
292.7653721
306.9504989
304.7336018
290.3557703
301.4235218
310.6411089
300.6150867
310.5068796
312.0531373
296.1510066
300.6851663
305.8429732
310.5785368
314.3748153
314.7216203
309.5207598
299.411921
295.6702233
304.1612254
307.2168907
306.0499983
308.1240207
301.199902
304.2967047
304.9250999
306.7272268
318.1413702
304.0049425
303.3733967
308.6215649
304.5149844
299.0987868
298.768311
295.2730232
300.9154776
296.173838
301.6626798
299.0994557
304.1054736
305.3379246
299.8309333
295.0469551
304.6467042
303.7574633
314.7184756
311.1745205
311.5858973
299.3955278
305.6548104
300.4676827
293.1746206
296.306248
309.2602938
302.5448067
296.0347203
287.6377692
297.3675136
306.8745863
303.5070345
300.7127169
301.0077283
299.4502701
299.5020864
295.7231754
288.6535678
301.8728115
299.3659582
304.6538747
309.6940418
303.603377
307.600063
299.8345277
305.0902714
300.2345213
298.7732822
297.8206987
307.2090228
305.4165633
306.2089022
308.4501594
302.8062077
303.0413313
303.720544
302.4402872
293.1279577
290.9263497
297.473446
292.8612558
295.2287114
295.8225677
303.7430325
312.7289572
315.7805366
315.4966209
319.9285473
314.4180119
307.1279595
313.8245146
306.8471566
310.5402996
315.978898
312.6106671
310.7325712
306.4497037
311.2038157
292.9363693
292.0219743
311.8348107
308.461664
304.880936
304.926442
310.2811197
309.4394314
308.5129094
304.1269349
307.7470751
317.4998676
311.7990421
318.7298448
317.8533589
315.8291499
309.8505931
305.2489008
294.0267455
295.6840371
301.8112227
309.2001977
305.3111435
304.0795504
306.5191198
302.5639404
303.1024382
302.7255788
299.1063951
300.8226489
303.6371798
291.6458905
300.4770453
299.5571851
303.0889665
294.7834415
301.3347115
304.1108267
308.6848899
311.9005019
307.8352119
302.6305106
290.5093631
293.44329
296.9045829
301.0357242
297.3730949
296.4488204
305.8048128
308.9746936
302.6558011
300.5434602
296.7940136
291.6877104
295.6841343
293.867132
296.3098436
296.0066909
301.5154052
297.0838647
294.8337982
289.7461251
309.233222
311.1391412
312.4673804
305.6005129
295.3731088
293.6976034
298.27185
296.0728154
296.1143292
290.851137
291.7154617
295.9206185
290.0424126
288.0572041
290.9293859
295.3000029
295.8083088
295.9063416
301.7763814
303.6152383
298.514071
295.329884
300.5567442
300.8532875
294.4499277
299.1721794
289.6395612
289.9446804
286.9676181
286.8244981
285.0480601
279.9628239
285.7807257
292.3574771
288.0952476
291.5196897
293.5983761
288.4580918
282.5076213
294.8913951
274.7469117
277.6104976
293.3627648
287.5416766
283.7340781
286.93443
284.2932893
285.6942255
285.4301415
292.5344685
300.3466437
299.9290273
302.5580202
294.0748589
287.5965508
286.2361563
288.465958
293.7984067
294.5031568
283.5423022
300.1462457
296.2521281
293.7637769
297.6613535
297.4023913
286.2721021
291.8284528
298.0064007
299.3442071
287.6175213
284.8201597
283.7246571
288.9721016
290.8268623
293.5768001
305.5989685
315.0707975
300.1328577
290.1206641
292.3551948
291.179449
291.4829244
296.4898783
291.0297101
284.4374312
291.3910378
299.8163563
299.8174365
305.9312775
307.4329178
309.8341075
305.1652028
311.5291792
302.2105443
299.7187681
289.5933243
289.3799754
297.4041553
298.1159958
291.2081909
306.4385886
324.9128684
310.8619338
298.3074212
299.5248089
311.7815095
312.4153976
302.6839345
304.9795094
307.3527594
312.6971641
311.9831958
300.8205947
299.7245862
300.4007859
304.5658961
302.5981878
297.4233528
303.1271884
302.9995386
307.9635932
313.6637336
305.4856365
305.5576072
303.0768033
300.4033779
301.8079334
305.2914452
301.3607735
301.2006196
297.6475185
307.2648257
305.2895703
305.6360379
294.9379136
296.9236697
298.3611817
299.3759533
302.7624148
306.6493995
299.7923139
303.3795625
297.2214731
299.3639845
300.3379484
297.2588183
286.7995498
286.0056506
288.6960886
290.6110792
295.5389006
296.1959919
301.5851633
288.2963752
290.9717945
300.3675985
303.6028102
305.4298743
300.416782
293.3279861
295.5577353
298.1784594
304.3759812
293.4400065
293.8949821
290.7319849
303.7081147
310.5748938
310.6024295
310.5777786
309.6692018
304.9969822
307.0620626
302.0411155
313.8275912
302.8971651
289.8895422
290.5510851
284.1401447
289.1655805
293.7728477
299.7978502
310.5670081
308.8760326
307.5659024
305.3893108
305.4233217
305.2700744
319.7900969
319.9075707
316.1917724
314.2770048
307.7868686
304.9293971
305.3720887
317.4635275
304.9575404
305.3956593
299.5844042
295.9932003
310.0985914
302.3419237
299.3149522
314.6353
311.5949007
303.6837795
302.8643057
298.9500052
306.513553
301.6629951
306.6235089
299.6318285
289.3019859
301.7959685
305.3245098
298.4079869
300.6322382
305.6614082
298.7829266
306.7081823
310.6642538
308.5821034
317.3382961
310.9946397
305.6344236
299.125231
303.4607258
301.9448041
301.3142651
301.5656081
300.585109
296.2599528
303.9526682
306.3569045
306.5024444
312.9576223
310.9771084
316.9584436
315.6975293
307.301734
305.3018844
310.5820386
310.4357199
315.9584611
325.1113575
311.9876588
302.8176155
297.2429569
292.1755786
282.2958516
291.0388514
305.8656781
305.1970494
302.0765541
310.4633852
320.9508524
323.2076968
321.7533791
325.1635104
303.7095955
318.456689
318.5518147
316.9278078
312.5292738
311.849752
317.6004959
320.3932946
315.352875
310.2789286
299.139812
298.3202146
294.6058776
286.7953094
298.7318139
300.1987636
301.2400464
302.775377
307.7021265
312.8062095
325.6844922
295.0214505
296.7782752
297.4763176
295.8602733
295.9249178
293.1028104
293.1632496
301.2641459
295.3777607
297.1078705
299.3968058
304.9316686
308.2789378
297.9034302
296.070267
293.8211986
295.9972089
294.9321821
299.2490228
306.8190544
296.0577324
287.0149187
278.579075
271.3250552
284.3321182
292.2640321
288.5655928
285.2198445
294.4050494
294.3158033
293.3522484
293.7145377
289.6979442
292.7443904
298.5613616
289.2044221
292.5575133
292.7976677
291.8101471
293.8768434
299.6396202
310.2254163
303.0631468
304.0869972
303.769062
304.7307169
300.2623254
294.7028281
293.0793346
283.8491804
295.362407
296.4724501
293.3186256
293.7037393
291.3588769
288.2298828
299.2333291
289.5287536
288.6650982
292.8097272
290.0518544
278.2042287
291.1497888
303.3844257
305.3452661
303.4737423
307.3891938
299.9873718
299.6508971
300.0350634
295.3030156
291.4076316
288.8209314
287.3572477
289.8411773
283.9120686
284.2442292
280.2312436
292.5952762
295.1019299
286.2176218
288.4088836
284.8813179
288.2187679
281.7063519
294.798011
291.7851674
294.3803793
302.4202692
295.8228952
295.0171322
298.9026292
291.6090549
284.0318767
285.7192892
291.8670419
304.063798
302.5004296
290.3787709
285.3585961
293.7439569
284.9194691
282.7731677
292.1940335
296.8993964
294.4924292
302.52416
298.7812486
298.2396575
297.9970202
298.9075279
301.5194086
300.2335799
298.2644846
309.3488998
305.3627035
295.7600907
299.1060455
295.639364
299.0968974
306.0438535
293.323776
300.1736913
297.8176327
290.4836662
286.7247012
288.7846098
288.7076277
288.6937559
289.9780065
283.1984736
279.3368333
295.2149147
306.641974
302.2603284
298.7065528
297.2626782
295.6101177
301.0960707
304.9356673
296.7797918
295.6489964
314.5774589
328.7797369
328.7584463
320.0892099
315.1227615
303.5980768
301.6300738
308.5741757
298.8245705
294.8644486
293.3476553
290.173511
297.3277613
299.2156942
296.713663
295.7461278
286.1334633
296.9170467
309.2114666
304.5260844
300.9857717
296.2138714
296.4045647
285.2636992
296.5288703
305.3259834
313.3164108
312.3558901
307.0772227
295.765991
290.1523092
294.9275892
302.9806155
297.9644616
305.3467082
305.1409988
312.8333089
311.1329975
301.1423828
296.8032495
294.0591765
285.8817546
284.2119833
304.1187196
301.3101646
293.3832401
292.5473461
288.6272025
289.6387806
298.0953177
299.9934613
310.4288763
314.0003578
301.9710733
299.4231452
299.8160726
297.9286403
306.6306147
293.6145553
301.7282883
315.2718088
316.2701156
321.3530365
314.3186048
311.0362581
307.5513862
297.1325285
304.0091475
303.3395502
297.7016274
292.2207763
296.1018484
287.4449533
294.7840249
296.3752014
295.1849872
294.5825226
293.9792718
301.3679355
294.4003197
279.4704375
287.6107496
297.0827224
290.9668949
289.9054121
293.7243414
292.025451
302.4690007
311.7094009
320.3183409
315.7452897
308.7117315
307.8349168
308.1906986
296.1350529
292.8816035
296.0301419
296.6508693
294.2475191
300.6705694
305.2074684
308.585879
304.5747486
308.2652987
300.3764853
302.3578465
294.3489502
293.3551297
286.3811764
290.7589655
299.7097249
303.4642502
296.4732345
297.1156638
300.2652523
313.3970911
310.353309
305.8498048
297.3293342
287.4188858
281.8226043
279.0061112
283.5706202
290.4329989
291.2341827
287.3620675
290.1668476
293.3068042
308.2666576
304.1123337
293.4394296
289.2800931
297.4496103
303.7711589
300.1538973
291.7778538
295.723912
303.9693237
294.849764
292.8445435
282.6794975
290.1060182
287.7863915
286.9420771
287.7594952
289.0599254
289.6099728
303.6946719
299.2379467
294.3883602
293.5104252
293.7514265
287.9392084
282.9445535
289.9279871
290.5913213
286.5031638
294.6510037
301.9929697
310.4782086
304.0932082
305.8170912
307.7803612
302.6205328
294.5571159
294.6694597
298.151485
297.0099423
297.2377157
304.2887155
310.9985078
299.8300854
300.1994091
299.6058339
292.2117543
291.5716579
290.2745417
290.5248691
297.8645043
294.3586247
303.550932
311.6696075
310.0103362
302.3857733
294.8229472
292.9027315
290.1620507
280.7044164
280.698512
282.7133706
286.0124126
295.871846
296.7546873
294.4657437
296.9270005
299.1725828
301.2887098
291.2936343
287.2260462
293.4568293
291.0099689
300.6801517
302.7034744
291.0706656
287.6571731
298.7741112
290.0823675
302.4980402
303.7427027
301.4889375
290.814836
297.10942
295.6513272
302.7877505
296.1503747
287.7308608
281.2320212
285.7976089
277.9087624
278.4287391
292.5793888
288.4148867
274.1439119
282.4343088
289.6220509
295.4191771
292.2390297
289.7675029
287.0587005
301.9179557
299.3970687
302.1020893
312.9462408
303.5199998
296.1752747
291.8228945
286.7260004
283.4190833
285.0557464
284.6071854
289.0026146
293.8779539
290.3332737
283.2687813
281.3216342
283.9833803
288.3601388
294.2982341
290.7731414
294.4426393
297.7257162
292.077736
291.4875895
292.0028147
292.2956784
291.4217111
294.4474519
281.2936622
293.9090767
287.8656534
288.20222
289.6576291
297.8908152
301.8870195
299.9081452
299.7479219
303.0027079
296.946475
290.6809521
291.273279
291.5371327
301.5169237
302.4243772
290.3818746
287.5981856
284.5738228
295.1914015
300.2417533
298.7016839
307.4493828
308.9617572
305.8111421
297.1861904
296.215572
291.2979949
291.8726093
293.9625447
291.8842868
301.0939047
291.5604225
296.8050167
300.7130824
294.7879845
298.8950881
293.0404564
283.5716458
292.9280582
295.8367811
304.0835686
302.1302969
295.4971409
299.980093
296.5111665
302.5030295
300.7135834
293.6961568
288.2001708
280.9383546
286.6364785
284.5717704
287.2133759
287.9721526
289.9552915
296.4251284
311.795707
312.7990201
302.5850876
297.5409647
305.0379903
309.4745598
300.0311895
295.8216803
291.9039728
297.4942695
298.8966991
293.5078666
293.3190397
296.8927775
297.017516
300.9665587
293.1562526
296.2057802
289.3667475
288.3552999
284.4203948
293.5823016
300.2925706
301.775095
304.2441067
295.4715289
289.5695002
293.4888571
292.3480621
294.3700686
292.0574383
305.1617556
305.0967068
302.0846154
309.6301088
302.3785264
306.8942295
307.7364535
310.2374783
295.8850112
287.5903204
301.6639324
301.7234924
303.6717252
297.1826131
303.9019451
306.2114789
303.729797
306.3569271
301.468427
293.548878
294.3259602
294.9376207
296.3509627
295.1154784
299.6960236
295.1628956
289.3005971
285.117661
288.0655636
297.11438
301.5770493
298.7141909
300.9530836
309.3156517
310.6495154
300.7325177
294.1298981
288.8410204
296.7166117
302.5781609
303.755501
312.2513086
319.5981451
310.3002434
315.7022989
316.2160073
306.9261794
299.6248
293.4530641
292.4261113
300.2205733
297.0871692
302.5547934
287.103279
285.713603
295.2834019
294.8520021
290.4123086
295.7144818
295.7788947
298.7269189
306.0328858
304.2438648
306.156119
310.7865469
310.4618263
305.8307409
306.7487907
304.3123959
303.9580842
306.9561768
306.7572547
298.0731492
295.6559266
297.0773459
282.9114769
288.2149463
295.9427971
288.2378991
285.698687
291.866049
293.5474522
291.2402606
283.8145654
285.9100638
294.6733859
296.9052497
294.1774149
292.0322622
288.6556902
292.8631393
293.1921651
298.9595228
310.0589097
309.5725061
305.1246731
304.3943127
294.2254908
292.3658464
297.1849486
300.3699983
301.7773046
289.544322
300.1000109
302.6103727
300.1660733
298.8686517
288.521081
298.0966504
309.0030286
309.9765053
309.2261898
300.2659203
310.9682671
311.6961808
306.3010666
305.0855782
300.6201503
301.7490927
301.6906965
300.2119775
308.2937218
318.2393438
320.2883224
321.4369737
311.1530745
310.4575135
317.9463471
314.5773385
305.0721319
305.9309457
306.1000956
304.023077
314.9412633
311.8007739
307.9007065
294.6946858
292.2854872
297.3562649
301.3949718
290.1626803
291.1294397
305.8786046
305.0525755
301.7509718
301.3666956
307.3428733
296.5776024
293.2504729
297.6988328
293.3106075
295.3797847
308.9103658
299.7342458
297.8991622
298.7384181
302.9540641
299.0443198
293.9101709
302.5284171
302.6753381
298.4302836
302.6719538
305.2286032
301.702543
295.4736569
300.7359371
304.1634112
294.5173115
295.7267054
292.2554063
292.68928
303.5108225
300.7144507
300.5207591
294.6977826
301.9996574
309.2266882
303.7781511
298.4824313
301.8490133
293.523925
277.0336384
281.2767467
286.5560774
290.8001213
286.5198699
286.4141178
290.6633468
290.8432419
285.1163955
291.2795503
290.6589928
288.7122568
287.9135183
299.643264
287.5707365
292.0816669
292.5823289
292.5379682
292.3738236
290.3497164
302.3264767
299.8823945
300.2036748
303.0354458
308.957912
298.3838604
296.0565108
293.1026049
294.1770271
296.452893
290.0589381
311.7935983
308.8491203
298.4047831
294.8221719
304.2994737
309.518682
300.040282
303.7874948
304.9767765
308.9749144
310.0656175
305.9440797
301.6400327
304.5201999
306.7224152
303.5985544
307.222606
306.5058946
306.1412631
307.0388154
316.5063243
299.4053302
302.0434187
294.0966286
297.5761528
303.1318066
317.3803103
307.7354572
308.2262535
301.2508231
308.6412826
303.7824683
298.0637897
300.2928741
293.0218584
299.1349864
295.3225591
295.0204723
307.2100966
313.18355
305.0242364
312.1934912
305.0324727
300.9900182
294.0628578
290.5092631
294.6022224
306.3750088
304.8948597
307.8625007
302.2553858
309.1548095
302.2659878
294.4453848
291.580394
293.3028639
294.9868311
302.6288067
298.0469912
298.3513981
280.9941486
286.0340498
298.090012
302.0187464
304.8177543
293.0300648
297.9196237
301.1728034
304.7090498
312.4315816
312.5203435
308.7733328
297.5708653
301.8253467
293.7477325
285.6951092
277.4294532
293.3139827
295.525253
287.6679625
297.5141014
292.6140233
291.6888603
296.9428331
303.7765863
296.0592147
293.8198419
295.7136413
290.1545954
289.8913893
282.3449565
283.0697293
290.0410078
292.875298
290.3285997
299.9233191
306.2425846
296.3648937
290.3439946
293.7471116
290.9721619
309.54276
302.3966748
283.8548937
291.5150609
305.0596165
292.8360763
281.0354642
282.6038099
282.7609134
287.1370499
298.6984317
294.1589177
292.9050509
291.6676111
291.7075138
297.2729946
292.3390275
289.6414222
290.8255244
285.8322117
276.7844231
290.0836377
299.2011426
305.5058494
298.4787774
303.0705413
298.129831
296.2689495
296.5638732
296.4463566
307.8345615
306.6126873
307.2577752
307.7807627
304.0416572
301.4845646
290.2364413
290.019262
283.2378108
282.9072988
282.2252038
283.5068811
291.7739341
297.4455139
286.2295042
301.2038748
304.0955607
300.8202535
295.7006302
300.0002893
293.2445183
292.6033308
299.9689176
301.661821
304.1657569
300.0215467
293.3517237
293.1329945
290.2965742
294.8668701
287.5590714
291.6448512
287.6881266
290.9060244
293.6193664
299.3642799
298.4308625
300.2181395
305.226558
305.1459223
295.5479184
291.4563794
299.7652783
302.4400857
298.6664855
300.2078598
301.0470312
298.4827778
291.1581285
292.6719761
292.3443594
288.2077807
290.4248857
288.9202071
289.7944495
286.762292
288.7993678
291.8498155
290.5245841
288.1716801
287.1365863
293.3271874
298.6256368
306.8365334
315.3071701
309.8633836
306.4323767
295.8777615
296.6083636
307.5329782
304.7563483
308.375843
307.2032157
309.3881071
306.415665
314.0290001
312.4429814
307.9330726
310.7284712
301.6482611
308.8199552
309.6701466
306.8682298
306.1423187
302.2403895
298.6720165
297.6464832
297.1997935
308.388479
293.0397844
299.7446667
297.6889427
302.9573636
306.9095633
300.8642318
292.6892476
305.344137
312.5126518
312.8199015
308.6013719
310.7208977
307.4848115
300.072375
306.4263474
306.6848234
297.7327498
301.3589729
300.032524
294.8608936
304.914973
306.5995104
307.8014346
304.7803197
315.6922038
306.1549037
311.3477214
306.4865945
308.4785538
302.9789769
299.3627034
300.9473067
293.2175955
287.2655407
292.6747959
307.1740531
305.6686295
313.7681687
318.1232949
315.1193253
310.7156515
313.3667489
302.3230532
294.4717948
292.0973884
300.5180225
293.4109583
290.692181
292.1517542
292.4750714
280.9516568
284.7281889
287.3500044
298.2816596
294.9321129
287.7006885
277.5864674
289.6955022
295.0272197
306.7194587
300.9606964
296.9531677
295.3040103
292.9785747
286.040307
292.1270331
281.2038014
282.6814868
291.2478663
296.0209823
301.3700913
299.027151
293.9760185
287.0264884
286.7522695
288.4244224
287.6170591
295.1310823
296.2112505
294.5750217
308.9001963
301.6688577
294.2652867
301.504958
297.0438332
291.6517586
305.5553997
300.7156326
304.0299919
303.3747979
298.7430484
299.9081106
302.3558758
296.4804852
300.6084663
301.2511128
304.302083
312.3687726
312.3668572
318.9984207
295.0702257
290.4854675
299.944669
306.5683945
311.4041833
298.5140536
296.4668315
302.1442307
309.751632
305.103306
309.8567719
307.8872046
305.8483059
310.2269215
302.3116372
299.8034044
306.0390786
302.2845864
308.0067639
298.4754417
294.5581468
296.5079209
303.9441715
297.7228881
291.7428553
293.1308746
293.6138293
287.2188246
284.9528566
297.9271948
300.5488911
316.1512215
311.2911275
295.4503184
298.6006374
296.5873955
296.3650925
294.3522759
294.8850808
296.6806525
294.1229671
293.6071463
296.897182
297.5069374
301.1092481
303.2259762
301.0646773
294.9195376
289.6948444
288.4254143
294.7301243
295.4753785
297.7362372
296.4426132
301.4002258
297.1913872
287.4822782
293.5257848
294.3373005
297.4768803
306.2908631
295.2469432
302.7461649
303.4253572
296.618056
300.2173787
295.1774946
293.1193313
290.6558683
286.2648044
280.4385645
274.8116633
284.2900583
288.880149
297.5608224
301.9592905
315.2620199
307.8174236
300.8551218
304.7585954
289.6989332
291.8845736
296.7327784
298.9700461
297.9218484
295.4663862
295.4471444
296.0519898
301.8024008
299.9545534
293.1778487
290.9564778
291.9691505
291.3458124
299.7221262
304.4221615
299.5230517
301.4558002
300.1530055
290.8196809
295.6746225
302.3527613
299.5969935
303.1934894
298.6981209
300.1795092
299.6176368
304.1224423
304.7132254
301.0514561
297.3495409
292.128143
283.6038308
292.3940722
294.0381876
287.9312243
294.3009226
294.1658283
295.1962987
303.38379
287.8676464
295.1021576
291.8828647
298.0050111
306.9254558
290.8079729
294.1610636
293.7055755
299.3964189
303.6733584
296.3047299
294.2440224
296.7481835
292.6723751
297.7596738
304.2403729
297.0334746
302.8101284
295.8970978
285.48304
303.3997069
301.1871491
303.732386
294.8593501
299.791325
302.4691244
293.2988647
291.1256168
292.1602751
303.8446645
298.0170421
295.5555124
299.9980612
304.3430911
299.1821856
300.8731837
286.5536621
286.1784064
288.4902779
297.3531312
300.8233223
304.26654
298.4441408
305.4619254
305.4890569
299.1970329
298.9161088
301.6386026
304.9108608
298.4281715
292.0687424
296.695009
302.2421307
310.6136267
306.6181027
301.8374722
301.7071511
294.9754727
291.565732
296.3640399
303.1563242
310.9553819
311.8134
309.6217965
308.2763871
302.5264511
300.7640445
296.7374059
292.574263
294.8960965
298.8314308
297.3413321
294.2113757
302.1739783
304.5339817
298.8928068
296.2303912
298.5713563
299.625393
295.1815965
290.7217536
295.8932364
308.8040875
306.9198715
307.3033595
307.6243874
306.9865518
320.1137567
319.8467729
304.4154719
315.0712104
304.3962803
307.6813862
310.5318362
312.1109368
313.463797
319.4250453
328.2515372
317.860786
301.5646785
299.218243
296.6554304
292.039264
298.5810545
307.5621627
319.0065565
315.0019328
308.8496018
294.3792406
303.2691014
311.4329762
310.0513053
309.4328207
315.9139158
306.7274508
307.4988305
303.5462049
288.1668694
289.1761136
292.4266886
296.5877306
299.5098367
296.0060614
305.8929102
307.9643178
305.4393047
307.9342956
315.6493231
313.1114371
295.8728995
296.4260101
299.4888161
303.1526775
297.2393913
302.8927754
307.1627532
306.8104183
315.1674564
310.3691156
300.1397933
294.0883898
296.6174879
297.417871
287.9108714
290.544977
290.0804398
297.3237203
303.2882009
303.7810802
299.1029311
295.1608684
295.0912543
295.1641946
296.8655755
302.8744198
305.922982
314.8365179
309.6803782
302.7430595
303.6512712
295.2382516
309.495766
303.337878
299.7455857
299.2208243
295.9717937
301.7839786
294.6614522
293.9621881
293.4051965
296.5132139
300.6003906
301.9662715
300.2669584
303.153297
292.3359358
294.3186727
302.5351958
293.9605479
286.7746642
298.7534942
300.4622699
308.9079186
300.7792534
291.0268634
286.7784937
287.8759882
294.8377709
294.3925512
292.0495479
291.3917504
296.9191181
294.9490884
303.6893623
299.4430916
306.074114
301.6581428
295.3107131
295.5963537
297.1857862
298.8923097
293.8625747
294.5445831
298.134573
300.0912866
302.752876
307.2619629
295.8088976
300.3363329
306.4975911
299.1466172
294.5337681
307.0849851
304.5282625
321.6100687
322.6375779
314.0031415
316.5438286
298.3149755
300.5927596
303.8799857
312.0351194
304.8521442
301.7692144
301.9017397
296.7281782
294.14319
301.5748457
298.1017476
293.0646901
299.3409641
285.7985342
294.0496432
301.1298093
299.5591649
305.5546556
307.3201126
298.2479589
292.4319055
295.1809264
287.7289804
282.1760592
290.9966721
295.0328748
299.6181742
299.0893409
302.5002014
304.4675916
304.4118297
306.9890901
306.6478161
300.6800799
293.9777805
303.6328468
302.8723469
305.5319348
305.8756296
311.9192594
301.5623351
297.7672705
303.1022139
308.5309822
305.7820159
301.3160843
294.8701929
292.9243359
301.2845443
302.3308583
293.5603932
296.6078266
303.3197297
310.8071799
301.6706364
297.412629
294.4131422
285.5592022
291.7754822
290.9053943
294.2180835
302.2198642
300.438914
310.2420011
302.3457782
293.2885037
302.9496411
306.5581573
295.1636051
287.2561964
292.1917344
292.563829
304.0888756
314.263285
319.8002973
315.1963093
315.3915121
313.1126285
301.3341259
305.8254982
302.6628873
286.0039864
297.0627311
285.5314364
285.8551841
290.5197427
307.412698
303.937144
309.7815096
308.6852552
293.0300446
297.6457801
297.6593175
303.3282003
299.6361696
298.9403112
291.564487
288.8103778
298.1126043
297.1589605
295.6820395
301.9159602
302.1709561
306.03208
307.6083354
299.098805
284.7648831
293.3800775
291.2287613
282.0265909
281.812644
282.9907359
283.9610859
296.124387
296.5748497
298.4326707
292.6807205
299.0688647
308.5748324
306.702645
307.1846817
299.7475612
308.8919937
311.0303435
309.6976497
318.8249593
314.8804829
305.1444782
298.639421
299.8386694
294.2934319
292.6509467
305.3200103
304.7542234
295.3128516
279.9975847
279.0091537
279.707643
288.8233501
298.2185731
306.6313782
306.076733
308.2679775
310.0062678
310.9967921
314.8155174
312.9495166
314.7800279
312.4916614
316.7463366
311.9574276
304.7842857
301.9579768
314.291162
309.5120075
300.4638145
287.153976
283.6250101
290.6639325
298.7601189
302.5544233
310.7562025
306.6777771
295.4279878
306.6323125
311.8933543
315.7890022
319.9286851
318.1952843
311.310391
310.9456777
322.8798357
322.0610282
319.4016855
314.6623681
312.1795463
306.5219172
301.6818557
306.8417679
311.7900586
310.9078543
309.1038588
299.4764365
306.552167
299.6819282
300.8896554
300.0395211
295.2510639
304.3190128
308.5564946
306.9901785
315.6420485
305.3386674
304.359204
303.6031964
303.8484215
301.7248614
301.3540966
300.0964482
296.976896
293.0896083
292.5740913
295.7738604
302.8811461
313.3187662
305.8641023
302.8804611
301.7244216
298.9013433
298.214036
314.755241
312.707572
304.3083434
306.064732
310.427771
306.8648124
292.7178296
292.9445122
288.9934088
305.2613844
295.3700226
292.1977134
311.0691032
302.8337033
300.7167626
298.6089021
305.5574574
306.4157925
316.9276661
311.8900736
311.9157547
314.0383651
309.6583947
310.7825072
312.2591045
312.4362711
325.6347316
320.332235
308.0637161
306.2315778
315.8416566
307.8965957
308.2986498
297.2787756
302.2139842
314.3213567
319.1440482
311.3690097
306.8710856
305.3899296
297.2507623
293.4683254
310.6973079
305.0409423
301.9299795
318.0128606
311.0048159
305.3747901
304.6280045
311.7911562
318.3251851
315.4696113
298.7097366
292.7694064
298.6478663
302.6910251
299.3337519
299.7020659
306.0621395
310.6287138
306.1494393
302.2644393
299.9175353
309.9443592
302.495943
298.9636576
298.340085
311.1166393
305.8726504
299.9235159
297.3337745
301.8275725
302.3792737
298.4574445
300.1445401
302.2668928
294.6909305
294.5406396
293.1700748
295.2694901
297.5392383
302.746843
305.4535509
307.4291571
306.246019
306.9285223
309.0282378
298.6966231
304.3802816
300.3173106
304.4980698
308.1457561
302.1111786
302.0954925
298.1751436
290.01197
299.0264863
308.463744
300.1801603
305.6949377
295.9383079
283.3786294
291.5165917
287.7174998
287.3042462
287.5808063
293.4183727
288.3489334
292.9488861
302.4605631
294.7067865
291.3762016
313.205944
303.0048776
298.4631084
302.9729688
301.8954395
313.6871974
318.1755879
318.5368969
305.3966789
302.5697264
287.0230895
289.7124102
285.8612102
286.3624022
293.8852916
292.3056583
290.9461604
295.4770908
316.310317
318.6553206
310.1841068
310.3376314
308.8083742
297.7957647
292.7569844
292.4363498
294.4336806
287.8602128
294.3252235
300.4868857
296.03214
291.7816005
299.1873287
287.9092523
295.1721335
301.7801573
299.1677138
298.7544503
310.926842
309.7446688
306.8622511
302.8151126
298.4656725
294.0755246
292.7794428
308.6934325
303.896621
298.3566111
296.1919419
289.9436239
288.2613992
295.208294
294.8818265
297.464218
300.0421428
299.2450734
297.3245237
298.7809508
292.8995619
294.3794158
307.6407308
301.6705212
299.2893225
294.9997927
293.5932617
291.44146
288.5720539
299.3957779
300.647438
305.2109455
297.4667191
301.3509598
301.2512082
311.2835879
297.5360504
295.3354911
297.8736835
294.786336
301.8821885
310.5577724
293.3403607
289.6367809
294.4072233
311.8045605
296.5058819
294.6569118
296.1368984
299.5310361
296.7234929
292.5079386
296.0819806
284.5985962
291.4600923
312.3544198
319.4308472
314.9749574
305.1840028
302.3421469
301.440596
299.586431
306.2602325
314.5899502
302.8086251
302.3906162
298.1050636
300.7782637
308.5096119
309.0862063
315.6539053
311.631441
306.4783908
301.6481825
305.900973
306.7204408
307.2491788
309.2415885
296.2336645
306.614593
296.3525281
302.3553588
317.3772443
303.077111
301.3434404
301.9213738
297.125343
304.4918051
308.4026947
304.1460877