/*--------------------------------*- C++ -*----------------------------------*\
| =========                 |                                                 |
| \\      /  F ield         | OpenFOAM: The Open Source CFD Toolbox           |
|  \\    /   O peration     | Version:  2.4.0-MNF                             |
|   \\  /    A nd           | Web:      www.OpenFOAM.org                      |
|    \\/     M anipulation  |                                                 |
\*---------------------------------------------------------------------------*/
FoamFile
{
    version     2.0;
    format      ascii;
    class       volScalarField;
    location    "0.0006";
    object      overallT_N2;
}
// * * * * * * * * * * * * * * * * * * * * * * * * * * * * * * * * * * * * * //

dimensions      [0 0 0 1 0 0 0];

internalField   nonuniform List<scalar> 
5120
(
302.2346541
294.7156672
300.0114205
293.4973179
298.0932713
290.3802361
288.3515672
287.4592325
292.3138815
305.9006062
302.3692468
293.2335423
301.0250262
312.0612354
310.4588327
319.276079
318.5212957
316.4360922
318.3198799
308.0102476
296.6724063
296.154162
289.6347383
292.1031311
306.6791323
301.6564913
297.9660125
297.945056
299.139913
291.0737844
291.582922
286.708712
297.2606191
293.5643289
295.9245881
308.4780558
301.6690134
301.1561554
305.6979707
306.8814938
306.4516839
308.6402687
313.5190303
305.8596855
307.1584999
304.9900967
303.9988167
301.4784181
299.3088827
306.4871519
302.6396906
301.7692224
303.390562
313.4900613
308.2833053
296.7335006
289.5879868
294.3360448
297.9229494
301.0745199
301.2505617
288.755773
291.5456345
288.6513307
295.7753615
292.5974641
278.7178409
274.9657515
289.3334679
281.8919007
277.7226421
288.725941
291.5471542
290.5577677
292.51255
302.0359105
298.4018444
306.2446645
295.2986802
294.1613093
305.5777464
314.197994
293.9505793
282.7280722
277.8434839
286.232887
296.9799461
295.688802
290.1242201
290.5247225
280.0947337
287.6422308
288.8732474
290.2361799
280.2591807
279.2806041
281.3179677
292.1209966
298.9384085
298.1792483
294.6967926
298.1502056
300.4961212
292.3187392
290.6926114
290.8731494
285.3052859
278.9204021
276.1806823
282.8248972
296.1650943
293.8884555
290.0860652
289.7905419
290.7900158
290.3108859
285.6537199
291.9445695
296.9013
298.3979648
294.4975243
299.7331609
301.3608646
310.3300182
311.1526514
293.7156976
293.7456334
306.5796508
310.1621204
302.4534563
304.3202945
310.2479176
308.2570799
312.3748783
314.4786391
318.066251
318.5040105
306.6170192
308.5986441
300.6657351
300.4710717
286.0039047
294.3931926
304.7485989
303.759721
302.2562586
290.953294
300.1971754
303.365961
301.8487315
292.3416663
301.5507911
299.372536
310.7666424
321.7875156
313.8967973
332.0115689
334.1414913
315.8997997
312.1482643
296.3031528
299.9076479
304.8587816
299.1657908
294.3423863
288.9513917
296.9924466
291.2370221
296.0680407
306.2839401
290.7270991
302.1655007
305.7949139
309.0546864
306.2979446
313.1425674
323.6088462
299.4723467
295.5583746
294.8296192
303.590986
306.5568368
303.0534501
312.2018181
324.3081315
320.5834996
322.1987193
321.1682167
310.4868001
307.5845551
299.9272594
300.6900825
299.554572
295.9475974
305.9727369
301.2029311
291.4269154
307.4515846
312.3383909
300.4085817
310.519823
311.4323175
295.5692913
303.131342
304.105163
303.9882536
308.5946706
308.1080045
305.3583231
295.7873924
290.9396871
298.491369
302.5779558
304.3106289
303.8840539
293.2448477
297.1742376
296.7382743
306.0440142
322.9675312
308.7414554
305.754609
306.4065345
308.7652784
302.0461803
298.3291096
295.7594783
298.0712437
291.0472597
294.0956009
292.9582952
305.2165506
302.0526227
297.8779903
293.36746
304.9861955
305.2913371
316.6349646
310.1281731
311.9619916
297.7605981
309.978466
300.9576985
289.4473146
294.7621811
309.2996022
299.5955793
289.4603699
283.1948338
295.7330289
309.6194185
304.1132357
304.7779328
302.8123367
297.9512373
301.7744617
299.3254522
291.1796532
302.6862369
299.2558151
302.1001674
309.2342495
300.1023875
305.7405784
292.4966498
302.9164669
303.4467545
301.6839063
299.3977872
305.9551854
305.9996054
299.421079
303.9258094
298.9110431
300.8756274
302.6593505
299.1838875
286.7974103
277.5635948
292.6346846
290.0257678
291.3815201
295.6820548
302.5363877
311.9619962
318.2227378
310.2513904
310.9555951
303.0527726
299.9139269
313.305702
306.1360814
304.9916266
311.6597465
306.9069702
298.9999011
290.0075109
300.3883624
285.6897385
287.0707946
305.9268894
304.593085
300.5210616
301.0399578
309.0518991
307.9599667
306.999069
304.7300451
305.8079378
318.3075192
308.1682285
317.8902168
315.0250475
317.6265475
311.1364318
307.907358
293.3805342
295.5173942
295.7943745
298.4058902
300.9695912
300.3600622
303.4746399
301.5951184
293.6137971
292.9606594
290.3893726
295.392386
303.2720587
291.9995704
304.4263608
299.1720041
303.9463664
294.7927131
299.8919297
305.9208034
316.19586
319.9202512
313.105558
303.3493122
293.5480636
295.4269944
296.850797
296.0752483
298.2088883
296.179679
301.9713107
305.8158233
296.8794447
296.4610878
294.9702384
289.1425703
298.0568299
292.964876
291.6497733
287.3827004
295.9004988
291.5887241
294.4899982
290.8556026
313.3585439
312.9418983
314.0322807
305.0761224
294.8131219
293.0922516
297.5083756
290.9704912
298.3285807
290.4246552
292.9658501
300.8020801
290.6244794
287.7424101
292.4754846
298.914758
301.3317307
300.928052
307.6564449
308.2906027
300.4964214
299.2107064
297.3326296
300.7713416
288.3806476
289.5176175
280.7258187
285.0691001
289.6180029
288.5686619
284.7696226
281.8489998
288.2381899
293.4854843
287.6766209
290.0014184
288.0797223
288.2752313
282.8883979
299.623731
273.3425538
276.7932203
287.5176895
280.5095587
281.8037602
290.7141068
292.2283406
290.828787
289.8733232
297.4030158
304.7274021
303.7639712
304.3126538
297.6748178
290.7758776
291.1220519
291.6229945
293.0720061
292.644712
274.7395909
300.8952357
290.2528015
290.5794336
297.6430245
300.6615043
286.6407222
295.3118326
301.5496243
300.9436629
290.1869548
280.7398158
282.0075605
289.5468393
294.9638282
296.940874
307.8299451
319.3825263
301.9044588
289.7336389
292.6349983
291.9544678
291.9626325
298.1885752
291.3608666
282.9393814
290.4031794
297.4684833
297.3454984
305.5127439
308.5363843
314.6408859
312.4621876
312.823354
307.7531217
307.7799866
294.9651668
295.9910221
304.7507754
305.9189726
295.8624642
308.6794308
323.3397711
305.7709551
295.2945798
297.1673918
310.4725674
309.4514277
299.2368979
300.9479396
310.3326122
315.1465205
314.5748675
307.5241049
300.9139751
304.8616861
309.4200153
308.1216742
303.9868584
309.7046533
310.1543591
311.8938865
317.079157
306.2551685
308.8073825
307.0358346
303.4178459
300.8654743
301.7377481
301.9964544
298.3951947
293.4573986
300.5102305
293.1826767
300.4198345
289.0268492
291.9757238
296.3157749
300.5674274
305.4248477
309.0042142
306.4463596
304.8945934
297.3924825
299.9023322
304.0565291
293.5213482
285.1521788
285.3543303
289.4567059
292.0117652
304.7126843
302.6803516
308.5984226
291.8517566
298.0353785
305.2130697
304.5683624
306.4779064
302.0871209
303.0666438
283.242152
289.146807
296.880501
286.9341998
286.0556897
283.3569767
299.4952754
304.6508249
300.4529915
306.2102388
305.9119206
305.2726114
305.9474837
303.5161785
311.7349468
299.9702267
289.8432933
289.8283122
281.5334399
280.9391422
295.4341143
298.3957969
305.8923949
305.9106015
301.4037028
301.2362799
304.0546682
304.1363343
319.8426343
323.3376148
315.7040522
311.7760287
312.398598
307.9235827
304.712224
311.3339052
296.8055416
307.6426959
300.9956372
299.2688402
314.0192024
302.7732822
302.2126735
320.4862374
313.7371751
302.3980819
299.1209083
302.246498
311.8324831
304.1200078
309.7424452
298.5439235
284.416995
303.567241
307.4829718
293.8526344
294.9593475
294.4772379
293.9430217
304.7114458
310.5513347
311.4127571
322.5811587
307.6227738
300.7741205
297.468065
301.5718588
300.3526639
297.8061165
296.3189157
294.7569761
294.4491072
304.3783253
303.9536334
305.8562268
314.8826148
310.6260763
321.5981902
320.1893421
305.2715291
300.7461988
311.6110471
311.7572809
313.1341804
323.4121207
308.0712397
298.3725151
290.7657477
285.4177298
280.2220922
285.5565307
296.0161682
299.0205191
297.3275088
313.3605907
322.755496
325.0592032
315.142997
320.3647628
302.0732403
313.3003294
312.1157999
309.008388
304.2386966
305.1878451
316.8769851
318.3205527
319.9712887
314.9406553
299.2310058
294.1207874
292.719783
285.6788088
299.1963461
298.1850233
297.7839784
297.2474024
306.4046527
311.3154984
325.3934458
292.3963739
295.0600341
293.7679115
296.9397159
302.1732129
295.3615607
294.7672812
301.0442868
296.1807488
293.5313102
297.9797909
307.8893689
308.8665892
295.565904
294.5629968
294.8021915
297.706242
293.7532958
295.381983
306.9722625
292.7374469
283.2040765
278.1802943
273.5333302
279.6164466
288.306697
287.6213633
284.6364063
294.5953705
297.394201
294.1104689
290.0181999
282.9918256
287.2639348
300.9812946
293.9498568
293.2151499
290.8418897
289.880783
289.5630515
307.4481601
322.4497409
313.6488178
313.3052553
314.0469139
311.1493284
301.528979
295.8016718
294.4200188
277.0841397
297.173704
301.0000349
296.1141399
298.7625023
294.0506917
287.1501825
303.1926057
293.8409326
293.4931686
297.4832164
289.2018752
276.2384713
290.404509
308.7570548
311.4784267
310.3029806
314.5974133
302.8362924
301.3501092
304.886078
298.6420361
292.3189629
285.0550319
277.1026111
283.7125666
279.878341
284.5476484
279.8271076
292.2210734
297.9088431
281.8826759
286.32987
281.2420426
283.6515605
277.2018226
287.4960655
288.4108736
295.1892721
299.945985
296.2720608
295.4133081
298.9564354
291.0282886
283.7551062
283.9586684
288.0810958
300.5212691
302.2434937
297.3611249
284.612916
290.3815701
284.723776
284.6930547
292.2357221
296.475791
299.867102
310.8665997
305.2198193
302.7316764
304.5465214
300.727792
295.9990212
292.9447063
289.0576231
304.4588976
303.4335476
294.9806003
300.0577409
292.1057382
295.7746324
303.8371296
296.5627386
302.5148714
298.6503248
289.2875866
291.4211747
293.9815086
293.6707326
293.5478203
294.0116834
284.9672685
282.5134922
299.8559979
307.829735
306.0046931
300.1807595
297.6320969
290.9645941
298.3393895
302.1333176
295.7721587
290.2083921
306.5547584
320.1851585
323.5776654
314.2415683
312.1329725
303.8722138
297.8882771
307.1754392
300.6930447
296.006419
293.1345356
292.9137066
301.6219967
298.0408405
288.6368651
285.0959047
280.0180123
297.3580921
311.8349131
308.523022
302.4379229
298.6542726
299.6166493
285.1192011
297.6543734
310.8020579
310.2790542
312.2554965
304.8812949
290.5875531
285.0105678
296.5692343
299.9391272
299.1090187
312.2219082
306.2160733
311.5728579
309.6514187
296.7121209
294.9607487
290.5513884
286.183061
281.4477164
305.8100025
301.9415361
297.402468
296.0119903
294.7576212
294.5851628
300.7341132
302.4269321
309.7521732
315.138847
302.8749377
294.9567529
291.5032766
289.5297256
302.9621339
295.8174131
299.3015258
311.5917581
310.5765338
311.3293516
309.0461553
298.8007875
301.6565891
294.7464306
302.8624621
306.0545395
293.9930774
287.3599822
293.8839928
282.1689585
290.0989794
293.8875739
294.5227624
292.8744305
294.2109116
296.4048923
290.6766316
274.6671538
282.745142
292.6165273
285.5472181
284.8586633
295.8000535
293.5309801
303.3707723
308.9171982
318.3172426
311.674756
307.2319406
315.6140409
310.0326902
295.6841785
294.8554627
298.4538394
295.9176156
295.6776945
300.0148368
306.3090909
314.267574
309.4912877
309.7861673
311.4231407
310.9117367
303.9898707
303.4933315
290.7161963
288.8320135
296.1935696
297.5202665
289.9749521
295.3838309
294.3897513
304.047597
303.9622906
303.2796317
293.8826065
287.7645536
282.4625571
284.2885544
289.4435872
290.1472302
287.7702509
284.0611237
288.578425
292.1210265
305.4579195
304.4386892
295.2931912
289.4488837
300.5163805
305.0557851
303.497572
294.7956787
290.6671416
298.2470557
293.8889507
291.2015878
280.2135155
290.9343254
288.3118288
285.8339846
288.5266029
290.6798957
287.6774709
300.0892864
295.2150615
285.5695374
279.373525
284.5465651
282.7082711
279.2706937
283.8373917
285.5704607
289.7732815
296.4689938
300.868038
315.56332
307.4777064
308.2212485
313.195022
305.0508707
299.774981
296.0834373
299.4301464
301.1335189
298.9069222
305.2158012
309.5300841
295.570623
294.8650656
292.6965921
286.6822859
284.7855841
283.8209676
287.486629
290.7986997
289.4045607
305.132394
306.4358967
301.3687419
298.1033158
293.6772664
292.0359259
286.6012421
275.3753681
281.853624
281.094611
281.3022811
296.3595979
296.0858786
293.9891817
295.428183
298.652789
302.658127
287.9623405
292.4408821
297.7993309
289.5913179
298.6193887
306.3940187
288.5973703
287.6377178
302.4449752
296.1425105
305.9472471
303.539303
300.6725527
289.0360569
294.1769931
293.0563969
307.0214937
295.047078
288.3380202
282.0838008
288.6261158
278.1933265
278.903684
292.3013651
287.7984789
272.7513394
284.4944684
290.404364
296.4177566
288.5360269
286.2878366
282.6614287
296.2013847
295.5944035
298.3308509
308.8459403
302.2105908
290.7589513
286.5801631
288.4361279
285.5173424
281.6650696
276.5291766
284.1043825
292.5881211
291.3102388
286.3895101
283.9105844
285.698232
292.0159815
294.1931126
290.1280059
297.0453785
301.9653717
300.9080331
299.2314022
294.4575483
295.9573889
294.5780627
294.1005
277.8138984
292.112137
286.1090504
291.0179783
293.0602858
304.6458186
304.9696506
298.9471112
299.9919689
300.8161473
301.3451519
288.6164807
290.6642167
295.9125234
302.8376638
304.4766185
288.6612514
283.5641693
282.652606
294.1063442
298.2769893
305.8008179
312.9429035
315.0589511
311.4439926
299.9699195
296.9426631
284.432661
284.1130135
287.3200883
292.3027592
305.047813
291.6621048
288.6404459
296.0352229
295.2196378
292.9875953
286.0543215
277.6720505
294.7144967
304.8435505
305.6832122
302.2238009
294.4960892
300.9267633
296.3542765
299.158402
301.6428893
295.7420782
288.2649296
275.178988
278.547681
279.1115344
289.8904148
286.064408
285.3388442
291.7035528
315.5171943
313.9677499
303.2427663
298.4920499
306.321076
308.3667905
302.8818664
294.9920258
293.4983843
302.089535
298.5377525
293.0543393
295.3150337
299.8008005
299.6273122
301.7114734
294.2105775
298.8979311
293.485445
288.4831437
285.1914229
297.3388032
306.8294272
305.9817731
296.6552847
288.9489773
286.7538697
289.1195687
290.4499432
295.7847733
293.6869442
303.4551555
302.5582285
294.9190253
307.7981592
300.9587235
306.829012
310.854136
306.4202264
296.3381283
286.204514
299.5672979
299.3534498
300.9012463
295.3414917
296.6936134
295.1805642
292.7320845
298.3168632
296.232389
292.8332253
291.3677944
290.8838074
289.1991099
285.8388422
293.9925931
292.0012826
288.2589769
284.3667284
289.4059115
296.1063493
307.9329059
303.4219821
303.6081397
308.0153957
309.6999956
307.7871218
295.7800054
287.9592685
290.2847938
295.5050773
294.822883
302.3763732
313.307676
308.7106324
321.8446157
318.9283951
304.3994542
305.1314685
301.8306169
303.3867936
305.1101841
299.643995
299.6334874
287.5172592
282.262823
293.4716369
293.4080867
288.244481
294.1258471
293.9358606
294.1878181
298.1795174
301.0405646
305.4024147
317.3379994
315.5154434
304.7739428
299.286622
302.8588309
307.5456615
305.8486426
308.2397027
295.0692348
299.9974099
297.8967096
282.5318651
285.3462494
292.539387
282.8959045
282.1913028
291.2310543
288.5184124
286.398198
285.4589694
293.4031259
303.4431035
307.6051806
301.3805898
296.7615943
295.9595752
299.9509076
300.7446526
304.0874304
307.8111682
303.7261386
301.5097807
304.6195864
296.888791
296.0890635
296.9948802
298.1863883
298.5171051
289.274599
300.9348263
302.8073322
302.464824
301.2142386
291.5752039
300.3089025
308.4063135
312.5830975
310.9026252
299.8075024
310.4317934
310.9340008
313.6651687
312.7820409
308.482775
312.3027664
311.8293091
306.7186748
311.0391776
317.103348
318.1476286
320.8305094
312.048886
307.1553329
320.3780898
317.5935917
307.743427
303.1755702
302.3120454
302.0128434
310.8662335
304.0531126
301.2408311
286.9829872
291.5664712
297.6613792
298.7016426
291.413181
296.3654241
306.3258608
305.7643406
301.2795251
305.5252042
312.5839888
296.3418093
292.7831147
296.5513011
287.8290651
286.6375359
302.4176303
293.500594
291.0669727
295.1339915
306.2457325
309.0719119
301.4130048
303.3671118
301.2821982
295.040345
300.6759067
304.5267996
301.7689444
291.8266926
298.9252983
303.3089206
291.7990717
290.9724684
287.4899573
291.235173
296.9506958
294.7046525
299.1442768
295.5577444
309.184521
314.1526514
307.3803477
307.2682994
308.635663
296.5586092
277.5933714
281.8849605
284.3652581
287.6405599
290.1225617
282.5654909
286.3290919
285.2426856
278.9722739
279.4047953
279.9045796
283.5447842
283.2963625
295.9345708
283.1314449
293.8414864
293.4247053
288.8625358
289.0426633
290.8555414
308.6499857
300.2972132
300.9351763
303.6088779
309.5898278
303.6562612
302.540932
292.5697047
288.1105953
288.1465965
280.2982583
311.7950556
308.1341462
301.4070499
291.2166453
299.6318076
303.2856141
295.02021
299.7789287
310.9373804
310.7147021
312.9206943
309.4723535
301.7765565
303.0309378
297.2530882
295.162168
299.2019446
298.8171513
305.711682
308.2592699
314.936222
299.2325098
302.2297017
289.0560718
290.901555
290.888265
312.365511
304.7313699
300.4645173
299.5185146
315.392623
305.6556527
300.5272576
302.0485658
293.3179373
291.3462574
293.3911736
292.3629307
304.0264637
307.023626
305.182031
316.643522
309.319942
297.450582
284.7514893
284.2315048
288.489826
302.8831883
300.6059863
298.2313176
298.8644531
309.994543
304.2330348
293.4251492
294.8081556
301.4243563
299.4710673
303.8282536
295.595573
295.0244021
284.0699604
284.7193866
295.4786004
300.6244649
299.5351562
292.1927597
297.4229115
295.886756
304.3455548
314.9669775
309.575544
305.8760614
301.0309013
303.969437
294.433288
291.7890305
280.6693275
298.2251963
301.7380631
290.4444739
293.555238
286.0375233
289.2862329
298.2245835
304.4043188
291.9945712
287.8525297
296.8139327
286.8550644
281.4167478
275.7885331
278.4058398
282.8801727
286.7594203
283.1756496
294.1327169
305.7299277
291.5079316
282.1155201
285.5570041
297.8513864
312.8404504
302.3065937
280.966052
290.9802162
300.6179786
282.3485451
269.2762596
273.9039506
278.3615351
281.3376614
293.5092901
288.4579792
290.343616
290.9998911
291.7359588
293.1628153
292.0042354
289.4104276
294.0748876
288.0367752
281.1960361
295.5030422
301.1720927
302.1541885
299.9888597
306.1914416
300.7626579
295.3067066
290.0833559
289.1265361
299.4771394
303.7537644
305.8576925
303.2406877
298.6691541
300.2606728
289.9647595
288.711949
283.9548885
282.7282152
281.5340195
284.2712771
293.7813222
301.3515823
281.4664585
297.3732049
300.8842898
295.6153032
294.7182661
298.1688165
291.3933264
293.4590511
299.5553568
303.4308531
303.9920599
298.5506087
287.3986535
284.7152063
284.2105893
290.8905718
286.4910001
287.1420034
283.6995838
290.1254512
290.2558056
297.2479337
294.5814
294.0065267
300.4506272
303.888111
293.3351422
287.3176925
296.2693076
293.1486674
288.8133485
294.2849612
296.2877768
299.289731
286.9689716
289.2888897
289.129427
286.0380546
288.7717163
286.7246708
285.0741705
281.5922899
281.88959
289.8203133
287.750413
292.9905385
286.4593532
286.0646289
290.0300313
309.0684699
311.85491
302.7860655
296.8993269
292.0974514
293.2001319
306.5267949
309.2799687
309.5073929
303.1379893
304.0083905
301.4992408
311.7301476
307.730568
312.2818297
314.5380942
305.712909
314.097466
315.4514809
316.0353057
308.6775499
306.1972535
299.1139543
296.2087863
294.8999186
305.7517614
295.5013855
301.5197946
295.6134763
298.901475
302.4489765
299.4875718
290.1578009
308.9218295
310.2565142
309.7749747
304.2263653
308.1959836
304.0304201
295.7084949
300.739879
301.7962213
294.077499
302.0193285
301.5337945
296.2368813
305.964234
311.1874923
316.413472
307.0538011
311.4206191
301.6218961
312.1583094
311.1605252
314.9847303
307.2473488
307.0727159
304.5639542
294.0315084
284.050318
289.1470815
302.3407031
310.7589423
318.0655416
318.5983438
317.9053201
312.1311334
312.0514875
304.6632292
295.5939271
292.8051186
299.5414656
292.272728
289.0813163
285.3102972
290.485245
281.1709511
288.0787872
285.7227285
298.5792143
294.8272241
283.2335768
277.9795942
286.3099935
292.2333388
305.7527111
301.8702959
297.008548
289.4216423
287.5110864
284.375441
295.3759248
282.9183241
282.1918828
292.7140515
299.5902165
303.1518638
300.9284646
296.9205019
287.2697663
292.3810795
290.2620368
288.8060383
300.7807458
297.588834
295.8358939
307.3006354
299.7023651
295.4271597
300.5684183
291.9214681
283.0941165
300.6151359
297.1348744
306.5604904
302.0160683
300.5813019
305.8657137
303.4149506
295.3383236
294.2093139
294.6437794
299.9960065
314.0113312
308.1579576
314.2510866
291.2514734
291.0100074
299.1711601
302.5276901
309.2676423
301.1253147
298.8761155
298.3103744
304.0253865
301.496348
306.4090479
304.9548533
304.0280375
313.8814175
305.4378285
301.7101967
302.2970795
295.4241539
302.1616693
292.645219
293.1352409
292.2436873
297.250348
296.0452316
292.3751525
290.8573062
284.8934524
284.0475068
288.1494875
304.4540249
307.1396006
327.8660044
323.7642977
299.2440367
297.8411233
293.7754687
288.4641268
284.4141809
284.000945
292.0306669
288.0438754
287.4298593
290.8886822
289.5071935
291.9057131
297.6013437
296.7776287
288.1447142
285.1282618
289.4817557
296.487056
299.8290665
298.2216985
294.7303902
298.4326299
294.5488584
286.2192444
290.5865732
291.9076691
296.3302162
297.1012743
287.0472569
298.1005926
300.0246593
296.8719917
302.5493722
303.4316919
303.6685464
295.9383369
287.473555
278.529394
273.6880419
280.1945098
289.8514821
300.800033
307.7726114
315.0107219
304.0010334
295.3882397
298.7178277
282.0658174
287.2861858
293.8777195
295.7497497
297.2275746
294.7109624
299.9075389
298.4443367
307.1378959
301.7331375
295.3204419
290.6999078
293.0329081
290.57921
301.380699
298.9930256
295.3886825
295.6465257
290.8578846
287.384672
298.097622
308.406967
304.2285211
306.5545345
297.6903561
297.85395
302.5001837
300.1967136
303.7860685
300.8637431
294.5443818
291.8046913
274.9024501
285.8284987
290.9337336
283.0926697
294.7070624
298.7162784
301.5200774
304.0637257
284.804606
293.3235337
293.0737962
298.9963391
312.4521002
294.2726283
293.3363381
289.7846268
295.8888391
303.5781478
297.2949074
296.513389
300.8671707
290.8422318
299.3343009
305.477027
289.9369845
293.1078744
285.4640863
282.0193116
300.0067257
298.9028148
307.9870376
303.3886357
299.9799302
303.7082243
300.130229
295.1655966
292.8342264
302.406315
292.4766335
289.0755934
290.014431
297.6142747
297.1830821
302.372503
290.7596402
290.3596776
294.0067434
291.1367429
302.1534334
302.4142049
296.1579021
302.5031244
303.7493468
299.2976851
293.7151913
297.3314964
303.9546185
296.8210687
291.865387
291.102462
298.6062218
307.5348764
301.9149163
288.2089818
294.5882492
287.7476635
289.4249417
299.8977847
299.4275249
305.3847241
304.8324423
301.4715452
301.2919361
304.3791581
305.4634965
306.7468798
297.8529431
300.3653554
298.3192335
296.6168548
290.0551419
298.6045953
303.4783524
301.7687728
297.7821844
300.2927601
298.6408336
294.9989417
288.4984251
294.4003005
310.4838737
311.0184468
311.8619259
308.9877177
312.295673
322.8378496
316.9783644
306.9988909
319.7570141
303.6698655
302.8503801
305.5933337
311.0405691
312.8763518
317.669154
322.5575971
307.6303167
296.1132716
295.381536
290.6466892
294.0444303
296.7395686
304.6706853
314.5015945
314.9940687
307.4379644
290.6055046
299.5839786
309.0934992
304.2503853
307.3969379
309.358926
301.0288427
305.7089559
304.1058842
291.2936832
293.2055411
293.1891208
301.4185107
303.2825355
294.4825972
298.3010013
307.5825181
307.2114754
304.3260396
319.2237722
315.2363084
297.8288773
299.4449005
307.2112926
306.0390777
302.4225612
307.13386
314.8810497
307.6248065
315.4082379
309.0045008
301.5271297
295.3591027
295.5136189
298.3006686
287.6828282
288.7559198
292.4962133
305.9032019
307.7513927
304.656624
300.5371537
294.7007524
294.1620008
296.6547403
295.5444672
301.3419172
304.9488679
312.3826046
315.2144574
307.9168213
308.0570344
299.1169413
312.0715001
306.3918971
302.156032
299.1693818
293.5184782
298.7776895
297.0037488
297.4363908
299.2675344
300.3660446
304.5607474
303.3526763
303.8020073
306.0795455
297.5902014
301.1748214
304.8068376
296.2250426
291.1606953
298.0846596
302.2063898
312.6815386
305.1208828
295.2485895
290.8477885
295.5216344
307.5039158
302.9528254
296.3226052
295.611402
294.8241207
292.546059
301.687753
299.8511509
307.1879852
299.8500827
291.0645761
298.4154928
296.2010933
291.8957109
286.2891028
286.8537543
297.0553371
296.6796189
300.7429116
307.403627
298.9233881
304.7208516
308.989898
294.8441553
294.2734951
304.1699887
300.5008222
316.5816596
321.8323457
315.5887239
315.4724627
293.5701477
295.2312048
299.2341789
315.9368491
312.8972004
310.7495172
309.198444
302.7431509
301.0818043
307.0493297
302.6932544
297.1037002
306.5856261
286.5468835
296.7088317
299.1940539
295.5167342
298.0011241
308.7865041
303.0285543
296.783182
293.9341867
283.4852664
273.5489051
287.2019241
291.9272424
294.265594
294.6208547
299.75765
302.8245084
303.3052921
308.2709258
307.1798805
296.1734042
289.2436741
296.9229203
295.299306
304.6231115
297.3378912
303.9360325
299.7558349
295.4150949
300.2062867
309.0661081
304.724289
296.2689693
290.4427463
290.6949952
297.4029341
298.5670986
290.1862636
292.6424516
301.2287639
305.8254514
298.3769227
300.4555641
292.3158668
285.1057563
292.1487968
291.1913655
294.3991403
302.5407034
296.6603724
312.0689151
304.1758388
291.4343821
305.6924548
305.0401219
294.5750704
287.9095547
292.8688674
288.2899945
298.4729686
307.323979
312.9997049
308.5977135
315.1729853
311.5162354
299.811086
305.9037275
300.468332
280.9266076
292.6997405
277.3057722
281.9086791
290.8253206
312.3098871
303.3761122
307.762211
299.475802
282.8340425
288.5725999
291.1266609
301.2306531
303.2091848
302.5933386
282.2475493
280.2934513
293.7542732
293.7889549
291.4593209
299.027808
301.1685063
307.4278379
306.5956821
296.3215684
283.035182
286.7284107
288.9957247
285.6363639
281.6209993
283.0791654
286.2349273
290.1741106
292.9386721
295.1992707
291.5143362
293.8197388
303.2908422
307.4653545
307.5328642
297.9505442
309.6932907
313.0900385
308.8124695
312.0486844
314.4614906
299.5250003
290.5917605
297.4610972
292.7884445
293.5594948
302.9409805
302.8105847
295.7985629
280.4197492
280.354044
279.0616939
286.2287784
298.4711891
307.7772233
305.2303868
304.0103798
301.7946612
300.8901312
311.2953534
309.9339746
316.3453791
315.4326709
319.3571254
310.7441261
307.0601515
306.2715869
316.7811749
311.0258905
302.3895663
288.5153291
283.814234
286.0244851
287.9348026
290.165943
302.8251773
304.3418529
301.4509308
314.6265638
315.4975953
319.4095321
312.3136536
312.7186195
305.4688359
309.7901899
315.2175728
311.3762633
310.5511981
306.1621423
307.7987741
302.7830262
295.1659083
299.7020007
304.7152952
308.4197434
304.6133449
301.7730124
302.4503865
292.0459923
291.6523008
293.9707589
291.674013
300.9283708
304.8973676
299.022795
306.6787325
304.585177
302.0227066
299.3685592
300.7776606
302.0647883
305.7531465
303.4544653
300.5702447
294.9424617
294.9018107
296.911895
308.3915696
320.5908818
312.1637206
305.0207381
306.3108824
301.0024403
304.082031
321.7138534
317.48859
310.046924
310.4790061
312.7678736
310.259922
292.8563476
296.3845403
291.1927474
305.2027987
295.8231936
289.9759254
311.2059448
300.8175737
299.8960502
298.5597496
303.0940254
294.0594108
301.4367185
300.9144472
304.4909464
316.1565263
310.0423351
311.0793234
312.8978327
311.5962519
328.7087423
323.7516082
311.5094544
304.7183307
312.2499961
308.6293427
308.2011999
295.4838989
301.2448941
310.6554042
318.3846934
309.6419727
303.0117414
302.2529108
295.8704225
292.131447
309.524782
303.2729491
298.350692
316.5091389
312.7761562
308.3348036
310.1888222
314.08827
321.4714275
319.5769464
285.7321643
280.473403
291.4884553
298.4415259
299.7794192
303.1625063
306.4008854
307.8718041
302.3895883
305.6531886
304.1173759
312.3100545
300.5040371
295.2247048
302.4992609
320.4209431
310.5009323
300.8411715
291.0646576
293.2429098
306.7112136
300.9432303
300.9735472
306.9845184
301.5507307
294.1073839
293.3022374
296.2648482
297.2390557
301.0375933
303.9575957
310.0797481
305.295125
307.9260146
309.3824823
299.3878033
309.1271499
307.7589366
311.9767643
317.4938699
298.198564
299.9775318
293.0178873
285.8836486
292.040116
303.5276355
297.4424068
301.3082797
291.1944442
281.6184106
291.0344444
287.406293
286.2665433
286.1750093
292.9598029
288.6214749
287.7689209
298.5725952
290.1182235
289.1570751
320.6279277
306.1692347
301.1527506
304.6734332
302.1687808
316.058171
322.1685091
321.6889194
304.9526506
300.366404
286.2302169
287.0859679
281.4677283
279.5000257
292.3590207
291.3815159
288.9330036
295.1347847
316.2020617
325.3523678
311.3186803
314.2855082
310.7045505
298.092668
294.6428152
294.22978
300.2112139
290.3833489
297.9023338
300.3984098
290.8412318
285.1570152
293.7286887
285.8002984
292.0091643
294.1891564
292.8535428
293.5041076
305.4477277
303.1539633
305.6819761
303.9874023
298.0732152
300.6758892
297.0865791
311.9993902
309.3954529
305.5628442
303.3088251
295.157455
292.4425324
296.4420023
295.2982968
294.9557069
298.0979283
299.9128847
297.9084683
296.0371484
290.6007375
296.4132264
311.6754666
301.6153841
297.6990763
293.70736
289.7189232
291.013462
289.3625725
299.837618
298.9113879
306.3571136
299.0133932
301.2582053
302.5736223
312.7225192
295.3865431
296.1905365
296.6934912
291.7822267
299.3248152
310.9890024
294.3954366
287.9388995
295.9381413
313.2690752
296.2223981
292.857879
293.3765215
292.6991255
292.460169
291.591755
291.5198049
276.5780253
287.6353212
312.2318427
320.5172914
318.8947757
310.3301483
307.2392072
305.5454414
306.708451
301.1000534
306.7759798
296.8265964
298.5827019
291.9386198
294.9134453
305.2956105
305.519203
319.0297857
307.0176424
307.9103556
299.5848156
298.7075598
303.1710467
303.0190018
305.5388288
295.9427126
310.8126253
298.2450456
298.7928634
308.648794
296.8241359
293.1779028
298.8372487
293.8742951
302.9294223
308.9076524
301.4911626
312.6693496
312.8233026
309.2806997
296.0498073