/*--------------------------------*- C++ -*----------------------------------*\
| =========                 |                                                 |
| \\      /  F ield         | OpenFOAM: The Open Source CFD Toolbox           |
|  \\    /   O peration     | Version:  2.4.0-MNF                             |
|   \\  /    A nd           | Web:      www.OpenFOAM.org                      |
|    \\/     M anipulation  |                                                 |
\*---------------------------------------------------------------------------*/
FoamFile
{
    version     2.0;
    format      ascii;
    class       volScalarField;
    location    "0.0006";
    object      p_mixture;
}
// * * * * * * * * * * * * * * * * * * * * * * * * * * * * * * * * * * * * * //

dimensions      [1 -1 -2 0 0 0 0];

internalField   nonuniform List<scalar> 
5120
(
0.3901702757
0.3970897027
0.4286110392
0.4042668384
0.3978959435
0.4080316542
0.3845282548
0.3970151711
0.4000655209
0.4369182386
0.424927735
0.4160937774
0.3999574804
0.400204508
0.4055884654
0.3981662385
0.3880879162
0.3863690386
0.4105172975
0.3987505017
0.3792025937
0.3759386283
0.3725215536
0.3757586479
0.4180832558
0.3923957451
0.3984700198
0.3995640384
0.4297680038
0.4065972404
0.4063824347
0.3851215084
0.4106117271
0.4106254504
0.4015536307
0.4335431017
0.4326870659
0.4302553565
0.4121276824
0.4088726038
0.4043816589
0.4023389875
0.4041491173
0.3914995107
0.3865543975
0.4147662768
0.4161196815
0.4003439451
0.4077226126
0.4117764933
0.4446076854
0.4473993991
0.4312809439
0.437550275
0.4350585246
0.3973311683
0.3903302852
0.3993511457
0.4175345512
0.3997035817
0.4229385707
0.4119820268
0.413248775
0.4105589063
0.4371716392
0.4060970308
0.348134762
0.354634638
0.3915824097
0.4074820837
0.3992413239
0.4056692868
0.4059790654
0.3948137999
0.4278701083
0.4356179341
0.4078266061
0.4159049541
0.3928526176
0.4036888086
0.4713063027
0.4625725213
0.4508482737
0.3973219446
0.358533796
0.3925240343
0.4266895808
0.4455672778
0.434336213
0.4059135152
0.4071419627
0.413542079
0.428677177
0.4260153364
0.3872230207
0.3765697323
0.3985022332
0.4307812142
0.4504250525
0.4481183971
0.4034997973
0.3913737762
0.4364941426
0.430725782
0.4474022374
0.4433896394
0.4083312727
0.3937493409
0.389690586
0.4014539304
0.4078141628
0.4126951798
0.3929006111
0.4188482196
0.4452850195
0.4421094622
0.42761272
0.397852788
0.3976455705
0.4009191465
0.4138653651
0.4228399711
0.3787533332
0.3970626122
0.412894347
0.3986337335
0.4027704924
0.4207567332
0.4041055347
0.3913279342
0.3949064301
0.4306536122
0.42877783
0.412233174
0.3862314491
0.430690323
0.433145411
0.4487963887
0.4719342875
0.4477391535
0.4095494136
0.3635270682
0.3905922604
0.404010072
0.4082192354
0.3887845437
0.3716790473
0.3869188369
0.4243282537
0.4347158167
0.4226683909
0.4072615474
0.4217891809
0.4480074586
0.4435261775
0.4277842085
0.4369880211
0.4418880532
0.4191128275
0.4171771934
0.4340803647
0.4597464487
0.4699571224
0.4289811272
0.4169128274
0.410819907
0.4257745618
0.3866359418
0.3830684007
0.4207283707
0.3985398206
0.4002555875
0.4254262197
0.4336105903
0.4514425271
0.4342256105
0.4391986883
0.3921886027
0.3917107415
0.4275627354
0.4269477618
0.416618438
0.39964578
0.4242936274
0.4518297322
0.4489061618
0.435463322
0.4233955662
0.4038625992
0.4002421471
0.4221803944
0.4280558144
0.4315956008
0.4402704298
0.444014677
0.4301413817
0.409505124
0.4523742142
0.4655713829
0.4460800558
0.4034307791
0.4089856871
0.3844835938
0.4076074961
0.4217031046
0.4625294338
0.445684683
0.422928108
0.4007726943
0.4003977179
0.4026249385
0.4269975684
0.4343131844
0.4269543322
0.4340815126
0.4309770932
0.4473282933
0.4543008419
0.4315924485
0.415129716
0.3933394719
0.4164418753
0.4360837515
0.4527299598
0.4138322255
0.4208314119
0.4396244444
0.4627456691
0.4437947021
0.4450782596
0.427775802
0.4026850481
0.4244493359
0.4046493881
0.38457072
0.403428787
0.396579798
0.4060090897
0.4218920847
0.4193143768
0.4115512509
0.4113289386
0.3920370557
0.371368042
0.3816283324
0.4147797601
0.4209388256
0.4003986499
0.3769486061
0.3935696733
0.4173135744
0.3954920715
0.4004951192
0.4109800825
0.4157308568
0.4147325966
0.3917844241
0.4023883298
0.4179187556
0.3912203439
0.3950685697
0.4019520775
0.3897155658
0.4060574487
0.3977697181
0.3868296234
0.3873259484
0.41281035
0.413973011
0.4126547125
0.381592833
0.3898847449
0.4104637361
0.3785289851
0.4117572509
0.4207646779
0.424401811
0.3957702434
0.3762610216
0.4101052416
0.3934454939
0.4024290789
0.3922316906
0.3901011565
0.401764687
0.4283190023
0.4161499884
0.4136957937
0.3918581893
0.3800057197
0.4033460142
0.3714888522
0.3784387251
0.39673711
0.3732983735
0.3875698643
0.3972740534
0.4257713864
0.3808604369
0.3975771353
0.437643072
0.4231902369
0.4300133759
0.434807235
0.4558138414
0.4236276796
0.4232624463
0.4099906213
0.4214914194
0.4379599338
0.4294470078
0.4480242137
0.44648693
0.4424268667
0.4046511883
0.3821307904
0.3887623133
0.4039259523
0.4054781602
0.4124903707
0.4311249542
0.4228037842
0.4257201699
0.431835807
0.451520057
0.4540438219
0.4392512897
0.4291020367
0.4253263797
0.3855565792
0.39912179
0.4074081927
0.4093497132
0.4056972541
0.3923819848
0.4157697951
0.4306835261
0.4360227402
0.3993985894
0.4160401241
0.4079623763
0.4188863652
0.4429168437
0.4157686067
0.4176848086
0.4375888181
0.424236248
0.4486028549
0.4382230041
0.4204676763
0.3972019416
0.3725277508
0.3832281923
0.4013672437
0.4067064536
0.4074377287
0.4100834899
0.4199209049
0.4237698364
0.4058048874
0.4297485854
0.4476862298
0.4453698647
0.4629029731
0.4072081164
0.394424371
0.3991587177
0.3985651879
0.4111266869
0.4070401036
0.404333604
0.4371880586
0.4305931849
0.4360290515
0.4105679924
0.4118420673
0.4116307405
0.4133183934
0.4148851319
0.4255684476
0.4156275082
0.4362775917
0.4466945781
0.4501057194
0.4209130973
0.4489205473
0.4123495775
0.4017578149
0.3861335802
0.3783462336
0.3841735191
0.4005925911
0.4191832167
0.4374265194
0.4245018908
0.4335155348
0.4474367598
0.4477352297
0.4184897064
0.4087874495
0.4091971386
0.4011753739
0.4385848131
0.4307010105
0.4134197735
0.4075045571
0.4085608235
0.4168970897
0.4110547039
0.4431883863
0.4324282306
0.4269476279
0.45050136
0.427601356
0.4091420621
0.3910501352
0.3721886896
0.4081886128
0.4196347805
0.4122114295
0.429979121
0.4191399198
0.3970566756
0.4164168885
0.4063605674
0.392237219
0.4147439349
0.4217499068
0.438592029
0.4013753332
0.3999477071
0.3792857919
0.3923713849
0.4115643096
0.4331165393
0.4646597765
0.4982615738
0.4626566507
0.4224590039
0.4234473817
0.4054688533
0.4091009794
0.4152633434
0.3933306342
0.3999641793
0.4254116664
0.4327351737
0.4288792013
0.4093569478
0.4278955871
0.4247193435
0.4279044788
0.4517997467
0.4028098976
0.3995101295
0.3824112826
0.381215643
0.4109445615
0.4221249453
0.4073707079
0.4116753612
0.4502932855
0.433826131
0.4120869538
0.403019754
0.4340513666
0.4168145803
0.4097831531
0.4234946057
0.4251822165
0.4381149286
0.4358076843
0.4184659022
0.4011542602
0.4180634537
0.4280399254
0.4145430546
0.4087970355
0.4277237264
0.4006426282
0.4269376342
0.4221885557
0.4019050712
0.4331431512
0.4134814723
0.4132141756
0.4148625398
0.4133307002
0.3971916704
0.401468418
0.4068450729
0.4411788347
0.4404491566
0.4342264251
0.4033583305
0.4177021398
0.4277198103
0.4244972619
0.4258725204
0.4167210519
0.4332832032
0.4454421352
0.4062209861
0.3957467977
0.4236752962
0.3993884296
0.4071580511
0.4227223886
0.4226156005
0.4211981884
0.4302775041
0.4173892524
0.3968361614
0.3697484185
0.3710293158
0.4119340579
0.4500381292
0.4524893253
0.4357301939
0.4205245141
0.3952405526
0.440948311
0.4732732057
0.4481180654
0.4091852819
0.3800228416
0.4259898047
0.4373587707
0.4445642011
0.4295183624
0.419531522
0.4292104568
0.456075454
0.4365071135
0.4433895164
0.4317071751
0.4086168194
0.4034088548
0.3920846154
0.4012760031
0.4372814827
0.4400345514
0.4441945774
0.4367617057
0.4391793996
0.4469241629
0.4087259803
0.4122644774
0.4430894224
0.4374767599
0.4155098649
0.4185615703
0.4068995488
0.4130513651
0.4334881531
0.4405816242
0.4145200742
0.4068037499
0.3960902889
0.4186358905
0.4163693754
0.3836431244
0.3768408251
0.4274379065
0.4178284181
0.4273438711
0.4223094432
0.4306913091
0.4305228742
0.4139080858
0.425162468
0.4104661296
0.3799176382
0.3960002184
0.4047459916
0.3979853562
0.4098632978
0.4178604441
0.4115153844
0.4154691924
0.4304529468
0.4486544507
0.4732218483
0.4613898781
0.4329875538
0.3985274699
0.400769562
0.3972667118
0.3946108447
0.4061691139
0.4028418507
0.3840577183
0.4183600602
0.4320864589
0.4148757626
0.4149883058
0.4151721554
0.4262319542
0.4267196672
0.4029328996
0.3934573066
0.4054490887
0.4416902009
0.4254721779
0.4458933427
0.4161794437
0.4137909794
0.3879309055
0.3802095937
0.3719679356
0.3943483118
0.4452736804
0.424667507
0.3987988766
0.4256972522
0.4276756505
0.4351857229
0.4269450019
0.4163542415
0.3935879167
0.4126130216
0.4248428693
0.4422215391
0.43024865
0.4132608324
0.4350804668
0.4524554928
0.4448819813
0.4276429443
0.410514142
0.3872917348
0.3679858189
0.3676126553
0.4073453419
0.4384752056
0.4357858023
0.4261465403
0.4158105036
0.4213317644
0.4528655311
0.3844249199
0.4187918457
0.4067502219
0.4163141821
0.4180882605
0.4158271122
0.4176449562
0.4364616881
0.4335152427
0.4249285909
0.4257852663
0.4632849207
0.4548974826
0.4472871853
0.4190160319
0.4152446422
0.4043277045
0.3921901003
0.4171483977
0.4052784911
0.4156337309
0.3959725535
0.3663876887
0.3667727922
0.3900444044
0.4173192042
0.3908611794
0.386079485
0.4067491993
0.4275445848
0.4261132953
0.4317264337
0.4026948777
0.3902460842
0.4070917591
0.3873755022
0.3962675982
0.3961115473
0.3936257915
0.4278749945
0.4343889972
0.4298553859
0.3970484489
0.410066832
0.4334264794
0.4253099923
0.4198669527
0.4088252139
0.407685937
0.3829011366
0.3908638825
0.3942895631
0.4020109657
0.3935774014
0.3830775483
0.3800091559
0.4175904249
0.3890229485
0.3902678186
0.4205693238
0.3778089243
0.3522681733
0.3778203902
0.3911927402
0.4074574485
0.4034075671
0.4182223605
0.4141647016
0.4201259576
0.4314517983
0.4126685788
0.3907353749
0.4019842175
0.3960986713
0.4237406414
0.4410851702
0.4411274864
0.3995864688
0.4181561323
0.3936643071
0.4070953646
0.397950655
0.3787337185
0.3631698414
0.3733025025
0.3976130097
0.3977536185
0.4169053364
0.435463661
0.4140303887
0.4247183365
0.418367202
0.4073867128
0.4058588338
0.3957861669
0.4123461217
0.4455246526
0.4363365031
0.4086526596
0.4126373497
0.4450784506
0.4206299773
0.3858894859
0.39857389
0.4063104997
0.3855076867
0.4146776201
0.4167418872
0.3979154149
0.422275806
0.4267679748
0.4447235218
0.4253234221
0.3969362519
0.4106619767
0.4068540654
0.4135227584
0.4283034388
0.4327555061
0.4592073588
0.4043455314
0.4087350887
0.4330527154
0.4285721316
0.3895496514
0.4016884971
0.4022817575
0.3991659746
0.4103177908
0.4095363275
0.4006331431
0.3872310858
0.4117792919
0.4528578129
0.4272850868
0.4406732757
0.4221366433
0.3915358007
0.3841211054
0.3769715909
0.4139107306
0.377134259
0.4203849536
0.4396976273
0.4450748387
0.4259086755
0.4365572309
0.4186338065
0.4190688822
0.4325174754
0.4292853237
0.4210199232
0.3936006949
0.3611795769
0.3961562258
0.374991525
0.3794878283
0.3717873858
0.3775754694
0.4119305975
0.41604055
0.4193416891
0.4330675698
0.4189279979
0.4150054083
0.3745596943
0.3759765772
0.3955103794
0.4352821633
0.4500878579
0.4227697924
0.3809724474
0.3809616929
0.4191688134
0.4202129425
0.4063808781
0.4139074535
0.4072588958
0.4158101536
0.4003015859
0.4349584328
0.4286319069
0.4194925213
0.3841927833
0.3898154668
0.4431983962
0.4434716914
0.4159689424
0.4019578292
0.375691507
0.391833455
0.4251499814
0.4117883828
0.4421924371
0.4617981759
0.4170550131
0.3819238081
0.4011922748
0.434130404
0.4546936119
0.3884557508
0.3842939429
0.4021523708
0.4331524822
0.4417232176
0.4267943806
0.4049851741
0.4145913681
0.3899604145
0.4265930642
0.438795615
0.4163819637
0.4058036246
0.415346926
0.3947777993
0.3888652753
0.3876885695
0.3980183137
0.4101090664
0.4007880837
0.4163454513
0.4100173593
0.3942780234
0.42601869
0.4454320843
0.3873241728
0.3943253966
0.3844138152
0.3812243652
0.4176477292
0.4243747167
0.4385018411
0.4166267822
0.4042125668
0.4126566673
0.4439920748
0.417040316
0.4130180924
0.4149890697
0.4096804435
0.4283566608
0.434138421
0.4167872578
0.3889816446
0.388024098
0.3978454084
0.3911830191
0.4086670041
0.3948750711
0.4057651656
0.4097734113
0.4048531619
0.4355396849
0.447186993
0.4211893743
0.4202183883
0.4061036407
0.4302813465
0.4399054472
0.441855074
0.4364975529
0.4054133507
0.4050480344
0.4150509796
0.4390788852
0.4449513241
0.4412349772
0.4086242974
0.4294554372
0.4073446232
0.4014763088
0.3843754212
0.3805695658
0.3641990111
0.4129919344
0.4434214606
0.4140810705
0.4091287567
0.4190278761
0.4492266978
0.4048801689
0.411404818
0.4086690225
0.4222728069
0.4253851937
0.4138839317
0.3683856163
0.3902505804
0.3750134742
0.4030852485
0.4175494227
0.4150618414
0.4036112384
0.4038446049
0.3889465922
0.3797893538
0.4044526403
0.4093801488
0.3895791007
0.3977864116
0.4468623314
0.442828965
0.4249552446
0.4421341727
0.4756369223
0.4467682714
0.4209134554
0.4190362822
0.4355837404
0.4292908544
0.4107776503
0.4159496478
0.4590068967
0.4303589168
0.4198051135
0.4219514716
0.4068639963
0.4019066042
0.4006524483
0.4055680253
0.4210719225
0.4260826039
0.4463815544
0.4491142278
0.4494509698
0.4414359698
0.4126995701
0.3991069435
0.4082916519
0.3961187255
0.3805353113
0.3699768564
0.4009323069
0.4343935839
0.4508343615
0.4391849239
0.4062941303
0.4029997005
0.4270440933
0.3918202493
0.3820911479
0.4036555029
0.3950023418
0.398832892
0.4102084438
0.3819578003
0.3893510393
0.411896765
0.3838812736
0.4096035237
0.4182120365
0.4285667071
0.3900943604
0.3827077411
0.3599631916
0.364094456
0.3708913261
0.3573670659
0.3537487057
0.3742890913
0.3702490493
0.3872198179
0.4250271727
0.4068202387
0.3596503877
0.3858254901
0.4166572798
0.4301417924
0.4273464825
0.4136468639
0.3786758157
0.3853397715
0.3883145433
0.4037502125
0.4228207039
0.4205213551
0.407181539
0.4206124534
0.4062365189
0.3969439713
0.3968665305
0.3895793458
0.4064828874
0.4192747412
0.421200578
0.3884806591
0.3769587873
0.3726292098
0.3670546728
0.379833234
0.3909109679
0.3933401001
0.4119014634
0.3984915546
0.3925770172
0.4141305544
0.4020989416
0.3986685846
0.4157661204
0.3945041797
0.4133690121
0.3839611314
0.3700887362
0.3869799913
0.4003653011
0.4099765031
0.4117238288
0.4165588762
0.4143990802
0.398546486
0.3930719692
0.4045343528
0.395814064
0.4179082656
0.4204380927
0.3935645387
0.3844220194
0.3758482457
0.3955585872
0.4001055801
0.3577560274
0.3739869008
0.381366963
0.4020540622
0.418390199
0.405160129
0.3847914994
0.3830085428
0.3954342782
0.3810092994
0.4043895301
0.3715739698
0.3751272308
0.4149510991
0.419690538
0.4371917983
0.4003239743
0.3615257684
0.3770416663
0.382155191
0.3966751233
0.4109035905
0.4091721311
0.4036321903
0.4028798105
0.4134677533
0.4003348409
0.3975009238
0.397752236
0.3749001868
0.3918558829
0.3888354581
0.4087253708
0.3977985547
0.3945198218
0.4020305787
0.4460984404
0.4378296454
0.4061496325
0.3920173552
0.4393485934
0.4619423949
0.4384608204
0.4171751322
0.4162945182
0.4316033883
0.4299904799
0.3953369625
0.4188560667
0.4193079209
0.4142101078
0.4216520856
0.4296081264
0.4352360004
0.4096677389
0.419416357
0.3966011038
0.4330321848
0.4336656942
0.430454702
0.4183071314
0.4170426583
0.4154434021
0.4184299074
0.417219541
0.4044162909
0.4088315377
0.4147126818
0.4125414247
0.3847143592
0.4035566941
0.4007439995
0.4035510952
0.4154746685
0.4050120501
0.3998418692
0.3940030068
0.4317306685
0.4415052323
0.4480873815
0.4126219916
0.4324081462
0.4320811185
0.4435536359
0.4419945072
0.4200455398
0.4180394364
0.4478066345
0.4175693447
0.4361297017
0.4209077212
0.4355348512
0.4198499224
0.3833682364
0.3814245547
0.3854345278
0.4047544766
0.4055236086
0.3888544351
0.4203807683
0.4310419869
0.4324582802
0.4041589835
0.3946238179
0.3914355933
0.4160314714
0.409843404
0.4180168189
0.4237209302
0.4345076318
0.4085108601
0.4415264903
0.445198751
0.4228951973
0.4047697261
0.3870598151
0.3800250831
0.3927071714
0.3646114026
0.3844467846
0.3926876979
0.3788644076
0.3976810296
0.4046629783
0.3914068973
0.4104152992
0.398030783
0.4399120415
0.4385763411
0.438400558
0.4667152871
0.477473697
0.4520030739
0.4335053863
0.427869685
0.4378106532
0.4475969265
0.469535891
0.4460634846
0.4111988551
0.4272239388
0.4515374576
0.4223189711
0.4228200364
0.4423792151
0.426150102
0.44046322
0.4305347516
0.4482778179
0.4432713602
0.4325491561
0.421510028
0.463407021
0.4572597724
0.4332867143
0.4066150033
0.403604697
0.4296538755
0.4286487548
0.4275556235
0.4316503287
0.4170275472
0.3968911086
0.3793389068
0.380810105
0.3744196676
0.3974181499
0.4013383869
0.4324833429
0.3844363981
0.4209843507
0.4175056489
0.4249977428
0.4119080919
0.407986977
0.4143960106
0.4457761542
0.4377545641
0.4487998439
0.4134296371
0.4214588618
0.4001157492
0.3759452384
0.3700395614
0.3493502544
0.3737355844
0.3783623497
0.3673688184
0.374349054
0.4253991213
0.4487573002
0.4511531879
0.415936555
0.4198833853
0.4286661022
0.438222454
0.400674132
0.4135941192
0.4314980203
0.4299348789
0.4417036445
0.4304057542
0.417759783
0.3793617967
0.3590874482
0.356079237
0.3760960321
0.3681035056
0.407619051
0.4278780431
0.4110700626
0.4207363874
0.4450326799
0.4454258805
0.4200989386
0.4193767475
0.4190678958
0.4127405833
0.4055144717
0.4577234916
0.4111618305
0.3958197543
0.4308917061
0.4361063615
0.445749251
0.4276900402
0.4318407073
0.4206768382
0.4111503094
0.4149987408
0.4042869359
0.4065009505
0.3877000846
0.3930119744
0.398461249
0.3832316422
0.3902210707
0.4215029073
0.4082677023
0.4172521279
0.3829981126
0.4050686387
0.3866431122
0.39133944
0.4375947271
0.4220752873
0.4235229635
0.404610773
0.3837553859
0.3564649778
0.3778071814
0.4112829575
0.4028435527
0.3790305446
0.3768778151
0.3979385267
0.4218086713
0.3878541741
0.3828704158
0.3757370951
0.3913570018
0.4024915387
0.41987105
0.4096245169
0.4125198503
0.391230974
0.388657784
0.3838124331
0.3821479853
0.387237718
0.4020520069
0.382751908
0.4094361828
0.4449754993
0.4417252855
0.4297504139
0.421323876
0.4174117764
0.4327226313
0.3966368397
0.4237453194
0.4224744506
0.4187715438
0.4135949536
0.4201739461
0.4159230031
0.3918977495
0.3953505692
0.390201536
0.3820755209
0.3824879461
0.3912444055
0.3839959371
0.3718237539
0.3847347208
0.3544858864
0.3782645167
0.3858662329
0.3874898428
0.4292278613
0.3890780953
0.3750165197
0.3721754219
0.3570809496
0.3821737991
0.4043038174
0.4233654665
0.4055494022
0.3944934934
0.391800622
0.4225648949
0.3894125501
0.3913049592
0.3887028134
0.370088673
0.3804164722
0.3950080415
0.3847715687
0.4100054232
0.413676921
0.4413822108
0.4490110225
0.4642872199
0.4498987119
0.3900968032
0.3608593421
0.3642896858
0.3929529341
0.4150513643
0.427460147
0.419137285
0.4373484254
0.4266623148
0.3941314216
0.3705975348
0.3629853233
0.3847438168
0.3956899298
0.4050973068
0.403501675
0.3831045132
0.4055523522
0.4184140142
0.4296251583
0.4377085586
0.4342990905
0.4493683641
0.4387500169
0.4260410622
0.44163673
0.4239937086
0.4114030801
0.3977928546
0.423079566
0.4200260302
0.3938723322
0.3811490646
0.4197431955
0.4382955923
0.4014897465
0.4185846825
0.402145181
0.4145386127
0.3975833664
0.4290128226
0.414502058
0.4187849504
0.4179670773
0.4119589306
0.4085790622
0.3998552293
0.4015043887
0.4193703204
0.4118947355
0.4062253471
0.4212226793
0.4329773599
0.4080409149
0.4051679746
0.4156792364
0.4429546548
0.4672798084
0.4544256572
0.4236354117
0.4223287034
0.4301512043
0.4123475973
0.3727917308
0.4082836091
0.3926038777
0.4095266621
0.4227158072
0.4304499302
0.4149138933
0.4141436623
0.4275331458
0.4375894886
0.4158646407
0.4150992048
0.415574971
0.398226027
0.383874435
0.3942491186
0.4289992375
0.4618837644
0.4543437103
0.4465143604
0.4346834643
0.4475942404
0.4282567977
0.4370083658
0.451551704
0.4265671832
0.4264277744
0.4283964009
0.442566788
0.4329173572
0.4092614359
0.4037101031
0.3881454743
0.3614473742
0.3605445432
0.3788189071
0.4018947
0.4097114054
0.3844240792
0.4255009488
0.4420957615
0.4339798751
0.4374187296
0.4237210531
0.4037012197
0.4126669295
0.4198245613
0.4207386598
0.4326756451
0.4137640202
0.4118143353
0.4158741787
0.396494672
0.3899965433
0.3957356714
0.3978349393
0.3900222191
0.3831233589
0.386660085
0.4259246477
0.4217869699
0.4465933351
0.474800482
0.454901775
0.4389552125
0.3942363204
0.4183549843
0.4447083373
0.4370849069
0.425887372
0.4223401877
0.4332627267
0.3973614148
0.4234066193
0.4125499649
0.4077822176
0.4326557264
0.4221272143
0.4185635553
0.4043286628
0.4256495377
0.4262162748
0.4054491674
0.3903106754
0.3984192928
0.4096799281
0.42177854
0.4450421707
0.4582949408
0.4694621398
0.4509654745
0.4155377256
0.4387954878
0.4102527125
0.4120039208
0.435159605
0.4284049326
0.4288722777
0.4516814108
0.4714527867
0.4413286135
0.4346600099
0.441286554
0.3995445259
0.4311683721
0.4248919669
0.4231734007
0.4259889106
0.4568860273
0.4382928588
0.4266978803
0.4215682137
0.4220816696
0.3947443135
0.3829247869
0.3890359855
0.4081539835
0.447557066
0.4109127615
0.3920500817
0.402060418
0.401202018
0.3962339567
0.4126607251
0.4132370327
0.4162338621
0.3962169381
0.4050734321
0.3990731068
0.3844303667
0.390190023
0.3826000604
0.3805660112
0.4316539622
0.4325979388
0.4211299448
0.4044637839
0.4083847548
0.4112102033
0.417095774
0.4225600864
0.4264775183
0.3954366752
0.4119366412
0.4083548789
0.3972409553
0.3651148794
0.3721444363
0.4059729777
0.4227613632
0.4669441714
0.4926995269
0.4563742668
0.4283984003
0.4225037394
0.4016012589
0.3791774517
0.3793025247
0.3874814857
0.370332615
0.3757718309
0.3819088928
0.41929694
0.3831438689
0.3840288956
0.383565254
0.4093472267
0.3705736962
0.3576954181
0.3609229194
0.3858836447
0.3926026536
0.4263761777
0.4384942008
0.4087982986
0.4116946627
0.4185906315
0.3849336415
0.4146723773
0.3980491164
0.4027611368
0.4106785762
0.4098235327
0.3970906562
0.3965129746
0.3935281552
0.3823164734
0.3926527542
0.4040254024
0.3868343996
0.3870741052
0.4207605014
0.4256271238
0.4398237222
0.4521409087
0.4073640716
0.3957865812
0.3714953373
0.3720347681
0.4060070501
0.400069846
0.4085882169
0.3990384746
0.3949992687
0.3969283953
0.400587119
0.3887749098
0.3693178418
0.3717760072
0.4023147979
0.4214173818
0.432172671
0.4400608443
0.3894880498
0.3574043057
0.3890070028
0.394455372
0.4303419559
0.3862252326
0.3817575417
0.3788659229
0.3915911928
0.3823214125
0.3992803979
0.4020549212
0.4154839132
0.416645815
0.3915547104
0.3973900494
0.4279598382
0.4081232496
0.427709749
0.3969924198
0.4083845067
0.4190255614
0.4228673011
0.4025003432
0.3942168053
0.3935555837
0.4092442799
0.3919932156
0.380103488
0.3949209811
0.4005477719
0.456274373
0.4379544138
0.4048988763
0.4527092742
0.4486756328
0.4551310539
0.4422657266
0.4306242389
0.4268535419
0.3893346063
0.3863194323
0.3854042254
0.4225700619
0.4296391836
0.4325162518
0.4214176068
0.3911704405
0.3869087332
0.3666590932
0.3980030303
0.4051972966
0.3984424645
0.4038718958
0.4177391428
0.4311471561
0.3878662137
0.3816529793
0.3965618377
0.3881954041
0.4448341663
0.4411151158
0.4537499698
0.4371974409
0.4298068251
0.419274619
0.4274147787
0.407340332
0.3942610307
0.3999268521
0.384222618
0.361790026
0.3459035071
0.3498207963
0.3590608257
0.3684913021
0.3869930183
0.38267987
0.3925347045
0.4211124109
0.4117233416
0.4078248659
0.4032806529
0.4096198986
0.4106028416
0.4393214558
0.4281969789
0.4368451484
0.4250498734
0.4219048002
0.4055358576
0.3911554051
0.4119275043
0.4116445073
0.4229358931
0.4478362193
0.4429146517
0.4316838345
0.446139871
0.4255591018
0.4017317831
0.4092514614
0.4244830353
0.4379982039
0.4067590115
0.3888684953
0.3890744913
0.4130062688
0.4192282715
0.4178924727
0.4071573076
0.3913956184
0.3824543039
0.3959373124
0.416591503
0.399006831
0.4116979643
0.4202338034
0.4084239836
0.4212931205
0.3761085919
0.4220796175
0.4047784685
0.4447325093
0.4524104649
0.4059534021
0.3969517202
0.376933313
0.4016557283
0.4083864888
0.3969592894
0.3811799668
0.3777460058
0.3732853807
0.3904575395
0.4326839702
0.4375678021
0.4610074117
0.4069104015
0.3816393814
0.4135093034
0.4193533194
0.3976881468
0.3730493248
0.3981442811
0.4188304712
0.4133321025
0.3988272817
0.3750989816
0.4003645354
0.3897303778
0.3784707177
0.4284051787
0.4581103893
0.4405219399
0.4362970171
0.38806385
0.3843102182
0.3797342115
0.4006486575
0.4288928729
0.4159911212
0.4163856341
0.437310583
0.4487130705
0.4303735519
0.3893036441
0.4061674501
0.3885245485
0.3657439518
0.3504981382
0.3772874623
0.4136646105
0.4467448723
0.4399536422
0.4287280712
0.4271293629
0.4067976774
0.3893583953
0.4137846102
0.4202721502
0.4440746152
0.4459985093
0.4052154429
0.4043742119
0.3934592843
0.4178982705
0.3731698068
0.3866133228
0.4187773212
0.4544370609
0.4316145907
0.4049715472
0.4366707347
0.4301854287
0.40963311
0.4003107197
0.3947480562
0.3921353317
0.4024332949
0.3937190762
0.4083398338
0.4335269169
0.4260029764
0.4444928945
0.4494549906
0.4301227631
0.454722662
0.4369991845
0.4193438737
0.4451575438
0.4247693879
0.4371941617
0.4131817505
0.4072626162
0.3958681626
0.4200499993
0.4460953023
0.4383512982
0.4061764235
0.4406558776
0.4137412942
0.4085051259
0.4041260939
0.4199306904
0.4258128338
0.4389115664
0.4343456077
0.4164918145
0.4345650258
0.4528215394
0.4239047417
0.4337913522
0.453319581
0.4319520187
0.4342857074
0.4205105673
0.3922386636
0.3992170709
0.4079722342
0.3806110604
0.3950957319
0.3807335832
0.4121929087
0.4244705116
0.4232825231
0.4237760691
0.456657778
0.4451879652
0.4121186499
0.4167800147
0.4230643362
0.4265724717
0.4266251884
0.4428474902
0.4457767636
0.4422939106
0.4482541081
0.4171160272
0.3880272269
0.3968379204
0.3980159228
0.4204693256
0.3967109503
0.3860427108
0.3954553847
0.4042048022
0.4176913808
0.4242966245
0.4103333095
0.4044504421
0.3945929562
0.3986364289
0.4271601323
0.4258623816
0.4239473529
0.4477914345
0.4432924097
0.4287273623
0.4114425948
0.4098907634
0.4176429234
0.3902168214
0.3830660345
0.3842606221
0.3776838275
0.3908415442
0.3847246313
0.3879433027
0.40385012
0.4157477726
0.4064441613
0.4171934111
0.4081174262
0.4219191503
0.4074038272
0.4050013339
0.4267951917
0.4082852412
0.4042493201
0.3988237915
0.3924480878
0.4009766229
0.419912755
0.3913114074
0.3833480084
0.3746407685
0.3939933734
0.4099941521
0.3833274883
0.3848134191
0.3884749104
0.4033134275
0.4075115481
0.4146907454
0.431985089
0.4255833587
0.4125424098
0.399095775
0.402897087
0.4057875814
0.4211470531
0.4055191964
0.415589018
0.4040659519
0.4064017281
0.4165586129
0.3798291252
0.3738683592
0.393550441
0.3839814151
0.39280395
0.447431765
0.4396456381
0.4797460971
0.4644461588
0.4248033062
0.4047531058
0.3900070079
0.3992610363
0.4204914635
0.421125386
0.3961977709
0.4063849553
0.4334180347
0.4188049972
0.4151358718
0.4394693464
0.4233117734
0.4266654049
0.4568435047
0.405661511
0.4212148545
0.4166683682
0.4217558395
0.4153918707
0.4330125337
0.4282482812
0.3982279999
0.4231045392
0.3741574623
0.3592579487
0.401601085
0.4104153453
0.3870022126
0.3831857832
0.4114594959
0.4484768114
0.4420602543
0.4599879427
0.4465693013
0.4045617638
0.3739429632
0.4111583546
0.4364409713
0.4429498879
0.4264140538
0.4410378102
0.4079048247
0.3878307368
0.4395602042
0.431797828
0.4225748534
0.4313481919
0.4108470981
0.4109058292
0.4311574836
0.4376594166
0.4185682334
0.3938438868
0.41599381
0.4391561688
0.4302154052
0.4133003558
0.4128885751
0.4056911685
0.4142718753
0.4157853333
0.4352339213
0.449442918
0.3816651249
0.417616516
0.410852038
0.4219945288
0.4416341722
0.4448621884
0.3945712519
0.3760633946
0.370803349
0.3832398576
0.3920854128
0.4047936362
0.4348131332
0.4411277024
0.4477093433
0.4361682311
0.3974604821
0.4031914803
0.3987391443
0.3657248602
0.404870386
0.372693678
0.3651915996
0.3624703003
0.4209944345
0.4159255072
0.4436048477
0.4399202163
0.4252230549
0.452251887
0.4522874938
0.4794106911
0.4349966016
0.4118208422
0.3848214839
0.377450619
0.4126396036
0.4273057689
0.4244461057
0.4142153016
0.4128155739
0.4217345569
0.4154241077
0.3958311295
0.3762482547
0.3853979255
0.3827336862
0.3686625304
0.3635960826
0.37377157
0.3749808319
0.4052040989
0.4137948337
0.4193783765
0.400311338
0.3891879322
0.4059820358
0.4237625394
0.4284532122
0.4219663104
0.4425750715
0.4403360525
0.4390646142
0.4555626841
0.4536483107
0.4549424713
0.4369353472
0.4345091627
0.4463502401
0.3977477993
0.4270652937
0.4274981371
0.431931321
0.4006149269
0.3729743837
0.4118828228
0.438557101
0.4344540222
0.4577200268
0.4573068781
0.4376042352
0.4394173487
0.4349069354
0.435397193
0.4281658841
0.405354483
0.3994740917
0.4296370632
0.4407413753
0.4511032412
0.4630865569
0.4779356912
0.4573321099
0.4242248581
0.3842434946
0.3683425975
0.388906982
0.4028232503
0.4134583479
0.4259939825
0.3872592545
0.3895761306
0.3909278612
0.4099653906
0.4215561585
0.45550754
0.4435154621
0.4096346084
0.423007621
0.4402186534
0.4300944714
0.4366297832
0.4244599359
0.3981636987
0.4093661895
0.3963556276
0.4133228196
0.4221602877
0.4427517362
0.4197319314
0.4070674823
0.4248951386
0.4154703773
0.4149406645
0.3908045025
0.3930923639
0.4071231062
0.4199265719
0.4044317545
0.443384274
0.407627064
0.3992587886
0.3849518102
0.400018641
0.4074589196
0.4082239561
0.4197000647
0.3960815815
0.3885783223
0.3746668689
0.3905807366
0.425268176
0.4596757326
0.4320990464
0.4161539193
0.426085651
0.429166587
0.4291185138
0.4382933538
0.4222047752
0.4040916884
0.3946845
0.417133023
0.4004638885
0.3864506651
0.3617832098
0.3641986467
0.4057795915
0.409762094
0.3958215096
0.392318993
0.3771016387
0.3929356402
0.4016300948
0.4196112389
0.4191417326
0.4541903995
0.4536208679
0.4768526484
0.4427542244
0.4319087755
0.4496145445
0.4598473312
0.4326996346
0.4424551567
0.4477718456
0.4239657905
0.3861520609
0.4021755731
0.3941044799
0.4085717872
0.3900655695
0.3923248795
0.417837864
0.4572366349
0.4413306546
0.4401222258
0.4270846931
0.4172339191
0.4153112471
0.4475824951
0.3995908242
0.3797071255
0.4030905457
0.4314836135
0.4251635258
0.4161868842
0.4379147451
0.4555346706
0.4395988899
0.4195485386