/*--------------------------------*- C++ -*----------------------------------*\
| =========                 |                                                 |
| \\      /  F ield         | OpenFOAM: The Open Source CFD Toolbox           |
|  \\    /   O peration     | Version:  2.4.0-MNF                             |
|   \\  /    A nd           | Web:      www.OpenFOAM.org                      |
|    \\/     M anipulation  |                                                 |
\*---------------------------------------------------------------------------*/
FoamFile
{
    version     2.0;
    format      ascii;
    class       volScalarField;
    location    "0.0006";
    object      p_N2;
}
// * * * * * * * * * * * * * * * * * * * * * * * * * * * * * * * * * * * * * //

dimensions      [1 -1 -2 0 0 0 0];

internalField   nonuniform List<scalar> 
5120
(
0.270979051
0.2807979532
0.3216438606
0.3096671393
0.3069621964
0.2968269847
0.2838933812
0.2872111982
0.2984346574
0.3401450544
0.335544591
0.3402486788
0.3341649113
0.3321990077
0.3263348174
0.3245890082
0.3167263399
0.3065883603
0.3150315939
0.2935768365
0.2994934188
0.3007135729
0.2941228229
0.288492934
0.3206182249
0.3067104064
0.3019150121
0.3187675124
0.3362113248
0.3211118699
0.3182212877
0.2920496669
0.3149540795
0.3007646862
0.3091910797
0.3365410146
0.3300351687
0.3258720915
0.3073488025
0.3111504774
0.3034592158
0.318745909
0.3287698792
0.3159350727
0.3113850741
0.3242498971
0.3271203014
0.3082153992
0.3129878703
0.3191130023
0.3310452228
0.3281678179
0.324946678
0.3400677259
0.331407257
0.2941010118
0.2903868101
0.2939152156
0.3149731321
0.3043589929
0.334541533
0.2991861379
0.302409758
0.3175279085
0.3411621435
0.3195867735
0.2740946262
0.272160158
0.2892633094
0.3004381282
0.3106421047
0.3215274585
0.321997386
0.3050740119
0.3337551864
0.3452100318
0.3284084438
0.3296023493
0.3063818746
0.3196964988
0.3721342884
0.3621589711
0.3423087972
0.2963890567
0.2677206209
0.3060299782
0.3377387934
0.3522725518
0.3453959845
0.3260876684
0.3159850101
0.310123791
0.3220182176
0.3318414738
0.3043831308
0.2989917102
0.3187924407
0.3387028344
0.3473447153
0.3502510461
0.3138669392
0.3129577678
0.3576600109
0.3508388048
0.365012588
0.3508277095
0.3230085639
0.3051695965
0.2907813157
0.3045822832
0.3250855498
0.3321098163
0.310395079
0.3240616688
0.3396420479
0.3309909623
0.3136159828
0.2969850941
0.3121047996
0.308274868
0.3133876683
0.3216062705
0.2974933992
0.3062121758
0.3064411487
0.3038144566
0.2960948836
0.3211769339
0.300115947
0.2868310069
0.2844506257
0.3183696562
0.3239883387
0.3194400582
0.3027327884
0.3412611525
0.3509355355
0.3659659453
0.3666338408
0.356473518
0.3248585007
0.2805855761
0.2986096637
0.3052915945
0.3011233555
0.2865016118
0.2762120186
0.2999504225
0.3364244849
0.3330571773
0.3136863763
0.3049043144
0.3145877443
0.3533440993
0.3527814624
0.3318865281
0.339978633
0.345895955
0.3241705062
0.3281475973
0.3246310573
0.3553971821
0.3663646934
0.3394140258
0.3374902072
0.3293887238
0.3485383611
0.3027799504
0.291845901
0.3354753939
0.3184932789
0.3200896455
0.3189230929
0.3119622694
0.340250188
0.3497886368
0.3525062745
0.3044967864
0.3013498931
0.3139551978
0.3434839077
0.3377202489
0.3255432673
0.3367442725
0.3504295612
0.3475774024
0.3381922558
0.342507647
0.3209921252
0.3141516759
0.322330464
0.3293706508
0.3413944186
0.3437628294
0.3319675287
0.315725721
0.3189219597
0.3774292947
0.37516058
0.3501714494
0.3159215432
0.316062367
0.3030117016
0.328160363
0.3253173546
0.344006146
0.3339824424
0.3241454527
0.317488848
0.3067396304
0.3087891906
0.3177097835
0.3215209723
0.3274814493
0.3315285493
0.3222799306
0.3271527905
0.3430862218
0.3348791394
0.3369711196
0.3075137081
0.3254216483
0.339005482
0.3527811239
0.3252157209
0.3145569095
0.3301228861
0.3402912737
0.3252680501
0.3263252958
0.325132984
0.3153575395
0.3305777469
0.3094177491
0.2974005891
0.3169088595
0.3114942043
0.3178907066
0.3289124636
0.3269083977
0.3125869779
0.3169984266
0.2996914888
0.286291653
0.295368212
0.3173783617
0.3265926363
0.3040566451
0.2919224005
0.3075234704
0.336160054
0.308177877
0.3146727722
0.3299027106
0.3181640722
0.3207758135
0.3037436902
0.3053413932
0.3188609811
0.2910713904
0.3067626376
0.3244076789
0.3080251416
0.3138371238
0.2949582097
0.2870957463
0.2969941479
0.3216758152
0.3222961892
0.3264804674
0.3006047053
0.3052883305
0.3164490418
0.2907388533
0.3222675533
0.3211442627
0.323827142
0.3000210912
0.2700506628
0.3112378911
0.3173851146
0.3207316946
0.3172863596
0.3062043971
0.3279516824
0.3575541156
0.3364281432
0.3196062975
0.2952820487
0.2849837307
0.3149853608
0.2805169821
0.2825658122
0.2965513246
0.2889045265
0.2920657463
0.2951813258
0.3261715842
0.2942046123
0.3180273098
0.3233203834
0.3193030221
0.3210532721
0.3340025373
0.3517814086
0.3332865356
0.3362268635
0.3248269388
0.3301075235
0.3296790952
0.321979855
0.3418130429
0.3342831726
0.3382325203
0.3089187876
0.2942631915
0.3018593622
0.3173798428
0.3129135029
0.3084715035
0.3332687029
0.3302637718
0.3311512362
0.3444148099
0.347596476
0.3486253746
0.3307579583
0.3259380693
0.3384987574
0.3149033158
0.3333256658
0.3234592043
0.3182070643
0.314257854
0.2960959519
0.3292140069
0.3458686741
0.3479468513
0.322639078
0.3300500775
0.3245911768
0.3282004213
0.3442959361
0.3156493713
0.3222526919
0.3454095736
0.330079032
0.3473737228
0.3363531545
0.3146392543
0.2930768206
0.2796699549
0.3034425456
0.3187932211
0.3201967337
0.3122702997
0.3237062077
0.3389177193
0.3407222483
0.323221528
0.329020893
0.3451067259
0.3431750546
0.3556192833
0.3126568791
0.3003738957
0.2973782606
0.2931970232
0.3033426516
0.3035699848
0.3065029591
0.3331712829
0.3162119316
0.3163432161
0.2941829399
0.297963552
0.3058801871
0.3028946645
0.3140616176
0.3270770072
0.3092294511
0.3252158453
0.3285269638
0.3371373131
0.3051612666
0.3171984511
0.2978196084
0.2954483253
0.3062087739
0.2904132179
0.2943462812
0.2991620795
0.3182272698
0.3381691754
0.330196108
0.339653972
0.3382005526
0.3381822284
0.3162019734
0.3065511619
0.3162897779
0.301526305
0.3219700596
0.3149901008
0.3108436363
0.3146238637
0.314682326
0.3227079009
0.3202900582
0.3454099497
0.3427322165
0.3359670319
0.3559012732
0.3433610552
0.3226667458
0.3158540778
0.2948991872
0.3209778604
0.3185819656
0.2955519652
0.319982497
0.3015234045
0.2909454753
0.3233521017
0.3295064196
0.3221593088
0.3415599481
0.3373341148
0.3457594573
0.3190376311
0.3076033498
0.2880401557
0.3015148825
0.3229226229
0.3407593517
0.3551117865
0.3843677765
0.3523656216
0.3219382202
0.3235908964
0.3143495677
0.313428369
0.3223708774
0.3089758996
0.3057284103
0.3124965532
0.3180320388
0.3202002702
0.3046671561
0.3254992373
0.334785667
0.33643933
0.3464442792
0.3252097521
0.3276770568
0.3107676857
0.3146640752
0.3364048031
0.3399305986
0.3165047456
0.3241819944
0.3441070887
0.3265678463
0.3082523777
0.2984672367
0.3214147995
0.3098309092
0.3077869016
0.3187479736
0.3327566822
0.34513081
0.3470799617
0.3429792701
0.3140728408
0.3310965712
0.342136433
0.3305510356
0.319726713
0.3432373333
0.3273809886
0.3337653404
0.3177631937
0.2930081702
0.3333954932
0.3149212949
0.3223180127
0.318977528
0.3130392623
0.3116453226
0.3087796148
0.304429732
0.3376213996
0.3232832486
0.3282463556
0.3001638312
0.3140481631
0.3338052648
0.3389351435
0.3449931652
0.3303364753
0.3347937614
0.3408183775
0.3107851547
0.3078301365
0.3402886416
0.3092727672
0.3161418006
0.3156761146
0.3161146546
0.3118267546
0.3337980859
0.3257442266
0.3089660779
0.2932723996
0.2991651168
0.3135504304
0.3400608609
0.3296617772
0.3209271871
0.3217910586
0.292571154
0.3299375143
0.3522416507
0.3331008652
0.3047869568
0.2777484199
0.3239381653
0.3362611452
0.3439441849
0.343721436
0.3265227851
0.3351523495
0.3478750516
0.3354371227
0.3423626196
0.3373510376
0.3242937682
0.3300333178
0.3162319647
0.3075263861
0.3409355584
0.3411341331
0.3329333217
0.333080387
0.3227040894
0.3333159999
0.308074443
0.3138458238
0.3295756107
0.3144879458
0.294358688
0.3000146804
0.3153880447
0.3191561381
0.3255503503
0.3323471118
0.299840539
0.3107611872
0.2962588452
0.3193637149
0.3333741966
0.2955548551
0.2899417225
0.3194114249
0.3232833078
0.337917386
0.3241409366
0.3501090824
0.3515525596
0.3353180912
0.3376608228
0.3150115762
0.27873984
0.2995868412
0.3091459168
0.2937872315
0.3117281252
0.3133860827
0.3252261969
0.3238954807
0.3255235067
0.3400527974
0.3564744976
0.3492812697
0.3203937619
0.3071880614
0.3079331828
0.2923974719
0.2829173341
0.2915634618
0.2930387206
0.2904616814
0.3300860022
0.3295953598
0.3228067502
0.3330933158
0.3239998881
0.3359995734
0.333240763
0.2990317512
0.2952902993
0.3242175739
0.3623570671
0.3451557896
0.3519860496
0.3123047321
0.302946954
0.2850102712
0.2878958261
0.2968218998
0.3027288346
0.3290411033
0.3199106716
0.2953811371
0.3249676156
0.3260114759
0.3463793639
0.3238453943
0.3176828574
0.3023140627
0.3295863937
0.33732214
0.3407668761
0.3279514677
0.3094526677
0.3392639341
0.3535785773
0.3569984901
0.3320181441
0.3073782849
0.2837368977
0.2731217776
0.2745926331
0.3161477202
0.3430659982
0.3384210971
0.3182364873
0.317187124
0.3239436733
0.3636822447
0.300365743
0.328702971
0.3056321783
0.311105194
0.3238219451
0.319301497
0.322185157
0.3430189065
0.3419258074
0.3242599229
0.332732253
0.3724637211
0.3586273662
0.3449959312
0.327537865
0.3369566432
0.3258830065
0.3039950476
0.3107036467
0.3161704734
0.3203210534
0.3105225722
0.2936266577
0.29623258
0.3040900946
0.3274186198
0.3074307148
0.2990284333
0.3261332635
0.3492972168
0.3417928796
0.3320205953
0.3126514816
0.2995993717
0.3132628518
0.3051896209
0.3113430226
0.3147996422
0.3113698892
0.3331446056
0.3400232857
0.3415074925
0.321563429
0.3276664858
0.3433478633
0.3296978129
0.328333643
0.327322214
0.3276730492
0.2947504106
0.3191800938
0.3254594722
0.3307358286
0.3202927539
0.3120971421
0.298580374
0.3348791529
0.3139377435
0.3101986538
0.3289058902
0.2892229892
0.2624001726
0.2797419628
0.3109327245
0.3221421742
0.3185330904
0.3284196737
0.3207942101
0.3224926364
0.334023726
0.3169606689
0.3004944237
0.2989379859
0.2958244209
0.3284450175
0.3503151327
0.3511998705
0.3197383829
0.3305540845
0.3091411864
0.3168567931
0.3055249968
0.2880500093
0.2772372847
0.2872133975
0.3070053958
0.3118280055
0.3310178194
0.3446192837
0.3279378989
0.3358474449
0.3303191291
0.3264271849
0.3206024778
0.3081257789
0.3163388066
0.3353366874
0.3329499739
0.3224058049
0.3192966597
0.3472446587
0.3318153262
0.308166708
0.3076089319
0.3114634573
0.3022017222
0.3268561562
0.317076248
0.3091808484
0.3229495208
0.327679861
0.3408723901
0.3182000291
0.3005322041
0.3139218757
0.3133455755
0.3133817706
0.3284567942
0.3321201181
0.3590011505
0.3074933618
0.3210902938
0.3386992334
0.3267213199
0.2926822069
0.3203740549
0.3208093573
0.3296723932
0.3314037899
0.3386568244
0.3227707267
0.3077761915
0.3319830998
0.3517861384
0.3357378133
0.3564779094
0.3403919131
0.313016478
0.3042267967
0.2910515828
0.3155999181
0.2797366112
0.3015678074
0.3232995073
0.3363891532
0.3146904341
0.3338416386
0.3210620193
0.3212083346
0.3291817137
0.3431987857
0.3260839997
0.2946558962
0.2808071159
0.3158890444
0.2857495888
0.2750321391
0.2672916141
0.2768402609
0.3150429241
0.3102970515
0.3151291536
0.3149963555
0.2972749603
0.3047469076
0.2721231633
0.2862650712
0.3178485215
0.3432112443
0.3506244313
0.3250422489
0.2861116961
0.2815655963
0.3228023797
0.3134616659
0.3138918594
0.3297480096
0.3103858659
0.3062740818
0.3048027597
0.3264404635
0.3236000218
0.3181031838
0.3047619523
0.2917092756
0.3489833721
0.3495862226
0.3208239533
0.3085479899
0.2947892856
0.3066932541
0.3278789582
0.3159135163
0.3434414876
0.3588782815
0.3215424639
0.2787411939
0.2939007857
0.3197250065
0.3431440448
0.3056626209
0.2967415528
0.3051757423
0.3178102827
0.3118657201
0.3069234934
0.2893383033
0.3028668795
0.2892136186
0.3197765047
0.3397529367
0.3044440152
0.2983607668
0.3047204486
0.28276055
0.281301153
0.2844300968
0.2970029023
0.3126835634
0.3176945491
0.3086181262
0.3091991624
0.2981704037
0.3139662244
0.3325703333
0.2813085425
0.2838345278
0.2822269389
0.2866071812
0.3182456855
0.3230750564
0.3422107604
0.3136174548
0.3062299244
0.3284063475
0.3378370542
0.3195383425
0.3213016128
0.3233247559
0.312631779
0.318784582
0.3229833743
0.3140194492
0.2994089209
0.285652131
0.2913810725
0.2931033429
0.310451528
0.3061947704
0.3231238092
0.332271486
0.3259365678
0.352349676
0.3600817126
0.3428025227
0.3440441136
0.3157631756
0.3238920381
0.3281268602
0.340964346
0.3281700257
0.307451869
0.3096173476
0.3275557002
0.3496499202
0.3359386195
0.3332754812
0.3109681238
0.3367116422
0.3195146336
0.3003075448
0.3039378175
0.3019714258
0.2809996734
0.326667379
0.3523009056
0.3305431979
0.3211023377
0.3181983372
0.3335473953
0.3333061374
0.3243462775
0.3216741778
0.3363635069
0.3451628038
0.3306543512
0.3007514182
0.3172592464
0.2882928194
0.310911047
0.3226591118
0.3094638274
0.2999198535
0.3006496328
0.2947700199
0.2940646108
0.3062593088
0.3162674081
0.3166619662
0.3286452324
0.3527510496
0.3535393048
0.3287744559
0.3387671906
0.3667835781
0.3328302047
0.3248259724
0.315611943
0.3352546494
0.3428925472
0.3331127937
0.340910223
0.3696180781
0.3396533629
0.3243857737
0.3226788233
0.3139845766
0.3119039485
0.3166633387
0.3214649479
0.3089154191
0.3170622097
0.3533311561
0.3550781441
0.3394924879
0.3439898021
0.3266080241
0.3127327934
0.3197659786
0.3112941629
0.3101126448
0.2910300033
0.3148018639
0.3518546278
0.3633280387
0.3495220199
0.320534524
0.3228391158
0.3448463969
0.3009984696
0.3105767744
0.3381067461
0.3306716137
0.3340480821
0.3418400067
0.3018173734
0.3097856895
0.3283776936
0.3098543092
0.3094729753
0.314424377
0.3385744184
0.3103274255
0.2996024385
0.2856479683
0.2934127632
0.2930050454
0.2771335818
0.2776138759
0.2969775525
0.2992456197
0.3088030211
0.3388918847
0.3207678884
0.2789578081
0.3094187496
0.3367394502
0.3478876278
0.3378907593
0.3335247385
0.3077019188
0.3106491502
0.3177314486
0.3253967525
0.3300813793
0.3275051232
0.3168005656
0.3330389817
0.3403753795
0.3256185984
0.3068806862
0.2999306656
0.3119707262
0.3253002416
0.3296202108
0.3068736174
0.304292564
0.3041086441
0.2944459863
0.2987095551
0.3050682297
0.3120283907
0.3258723268
0.3240513151
0.3116521723
0.3294059432
0.3152979881
0.3085902891
0.3185415222
0.2984531453
0.3090141729
0.2823623178
0.2833867864
0.3027681888
0.3167497391
0.3176814249
0.3145669245
0.3154453799
0.3083890627
0.3088242301
0.3013439208
0.3143234062
0.3128785259
0.3243431552
0.3153430999
0.2971038037
0.290403959
0.2844794101
0.3058980638
0.3010570777
0.2729377176
0.2947375041
0.2991804745
0.322673375
0.3387096408
0.3258644879
0.2975337762
0.297278517
0.3037369149
0.3109947537
0.3370771076
0.2974298124
0.2904225877
0.3166299688
0.3323822793
0.3260966769
0.3018354216
0.268754233
0.2833246631
0.2926512211
0.3131147763
0.3259740155
0.3222695985
0.3280736942
0.3247300771
0.309701315
0.3060190108
0.307798779
0.3199394186
0.2879488025
0.2951895091
0.3016194733
0.3322183171
0.3165932193
0.308390892
0.3152765094
0.3675153734
0.3501116809
0.3220634683
0.312952323
0.3383109533
0.3527068619
0.3414708409
0.3172140563
0.3185795126
0.3433012116
0.3360975245
0.3077098464
0.3185013524
0.3179585434
0.3064813792
0.3270748087
0.3405965098
0.3597594769
0.3428366756
0.3369577138
0.3178258876
0.3543148909
0.3582546874
0.3469774313
0.3018630833
0.311476135
0.3115442325
0.3122977206
0.3189378048
0.3075757088
0.3040243063
0.3035981281
0.3114146503
0.2912922678
0.3245555473
0.3176357922
0.3163248013
0.3307350311
0.3120100664
0.309382658
0.3017746213
0.3287619077
0.343749072
0.3423640965
0.3147251346
0.3198652763
0.316043629
0.3252577924
0.3256482938
0.3109126276
0.3100060153
0.3305067875
0.3100369781
0.3132196908
0.2989765748
0.322475013
0.311831393
0.2852315465
0.285933034
0.2896829235
0.314443088
0.3249843222
0.3098879332
0.3369662787
0.3233509542
0.3212800811
0.3195238136
0.3106122241
0.2992288242
0.3057001462
0.2979664528
0.298133088
0.3044415375
0.3251025012
0.3078706214
0.3349419048
0.3329435971
0.3038822951
0.3080758807
0.3036437184
0.3060951915
0.3082242984
0.2797098789
0.2806662719
0.3044707088
0.2899643711
0.3018178294
0.3116952302
0.2982797927
0.3102916829
0.2979773724
0.333090792
0.3269305317
0.3205675818
0.3425577677
0.3660160461
0.3573778039
0.3504858114
0.3323129054
0.345755205
0.3572449382
0.3662420714
0.3438022747
0.3117656567
0.3359185677
0.345413379
0.3282526264
0.3261665572
0.3401416317
0.3223573964
0.3411506162
0.330910757
0.3366195276
0.3321363592
0.3384379804
0.3379991264
0.3589152308
0.3449276996
0.3335749241
0.3064189128
0.297512413
0.3170131089
0.3231152293
0.3215898428
0.330872969
0.3018447443
0.2867928955
0.2876642804
0.3098337373
0.3090667916
0.3247935124
0.3246705756
0.3402775094
0.3087906552
0.3362165686
0.3251093878
0.3352181812
0.3189073607
0.3118441718
0.2998714994
0.3309208057
0.3351094452
0.338308905
0.3074562874
0.3238214852
0.3069689496
0.2982175601
0.2912242802
0.2782049358
0.3036274441
0.3097484357
0.2884629135
0.2912150767
0.3124676126
0.3463034006
0.3479139977
0.3168088259
0.3148202677
0.3381677885
0.3528261599
0.3224565059
0.3185473598
0.3359438458
0.3372090754
0.3492442954
0.3240371171
0.3224771479
0.286621645
0.2858427467
0.2912566651
0.2978223954
0.2933141067
0.3239494164
0.3271667481
0.3163320584
0.3188668155
0.3505634021
0.3486365795
0.3171990146
0.3222750398
0.3290091466
0.317891721
0.3058270533
0.3587912637
0.3053297267
0.2925507783
0.324295737
0.3423304047
0.3609069235
0.3352197503
0.3351101615
0.3260210154
0.3104374333
0.3239023698
0.3198506998
0.3211762803
0.3008737459
0.2910611263
0.2956534898
0.2783401803
0.2751559336
0.3092712979
0.3066776871
0.302462382
0.2938291394
0.3126423356
0.3039706551
0.3136144917
0.3458360789
0.3310422095
0.3318277863
0.3157921618
0.2915450142
0.269765846
0.2894996583
0.3023060983
0.3026113247
0.3055942857
0.2913085012
0.3103944142
0.3210511845
0.2925362048
0.2799008524
0.2792958954
0.2955572222
0.3058958578
0.319515265
0.3082513788
0.3196648553
0.3038210186
0.2868506206
0.2783641761
0.2961991481
0.3091396806
0.3115120273
0.2994537373
0.3168040988
0.3525715536
0.3621087006
0.3506242335
0.3292892849
0.3271582958
0.3306199748
0.2974998816
0.3386943971
0.3407630011
0.3296449405
0.3119922997
0.3124745574
0.3108723167
0.3054115195
0.3039030622
0.310416284
0.2957382025
0.3011298484
0.3031623984
0.304057047
0.2982507916
0.3000750667
0.2823185931
0.2948050621
0.2983203475
0.3078658907
0.3470533403
0.3105277687
0.2935882607
0.2940683341
0.2718514266
0.2946892242
0.2946458744
0.3188338496
0.3041461235
0.2937735051
0.3090723436
0.3443013496
0.30683885
0.3151211511
0.3021473317
0.2932884841
0.285817416
0.3050283526
0.2995278773
0.3122162872
0.3195523903
0.3399604134
0.3524717597
0.3670807831
0.3437419661
0.2882792992
0.2830761501
0.2901673918
0.3145925426
0.3231199498
0.3211170844
0.3183685635
0.3452111353
0.3312304134
0.3062218898
0.2914969256
0.2984662347
0.3061281395
0.3180224489
0.3201138825
0.3172169025
0.3193631195
0.3284302673
0.332307811
0.3389098393
0.3339691222
0.338112571
0.3548069707
0.3315479493
0.3279787307
0.3486468541
0.3301365306
0.3093959132
0.3047704399
0.3283329655
0.3247262752
0.3123131723
0.2950017532
0.3272727913
0.3499582554
0.3181265227
0.326580638
0.3116006408
0.3271101809
0.3235054837
0.3396335934
0.3186540783
0.3184269907
0.3313186126
0.3152601406
0.3080667391
0.2962051159
0.3091764986
0.3131725395
0.3076479496
0.3010665872
0.3187203945
0.3463006163
0.3261202036
0.3205659785
0.3251729187
0.3680386785
0.3735731649
0.3559438129
0.3271776981
0.3370166093
0.3343010994
0.3069195167
0.270587788
0.2932407254
0.2909829964
0.2998538506
0.3121469486
0.3244874036
0.3191274836
0.3289107911
0.3435586981
0.3439957518
0.3301129048
0.3200758542
0.3294996501
0.3176142261
0.3143361223
0.3129011872
0.3279867523
0.3461882561
0.353263115
0.3549086887
0.3516518139
0.3596709719
0.3408866556
0.3398390876
0.3342904303
0.314591569
0.3210374164
0.3161518873
0.3362562809
0.3306973877
0.3185036512
0.3185158465
0.3055955458
0.2943684526
0.2891908168
0.3091370718
0.3312887867
0.3299213185
0.303074193
0.3310836057
0.3469171062
0.3296435987
0.3395342161
0.3240969688
0.3108751754
0.317732436
0.3103309357
0.313497822
0.321379818
0.3058403052
0.3007910153
0.3065168906
0.3049746834
0.306534075
0.3131065954
0.3053775381
0.2989721998
0.2884309172
0.2829133629
0.3175302773
0.3064641544
0.3228227626
0.3526353226
0.3438342233
0.331103713
0.2910115817
0.3121232462
0.3174865808
0.3174137509
0.3127084572
0.3132836374
0.335334275
0.3002828325
0.3010353161
0.3018778717
0.3050424688
0.3257007012
0.3183353914
0.3148306811
0.3043131151
0.3195956163
0.3313026384
0.3139536953
0.3154724985
0.3120067693
0.3054411928
0.3026997646
0.3357157337
0.3392111538
0.3380891982
0.3315785228
0.3126105654
0.3282087649
0.32760891
0.3434578771
0.3514921157
0.3367868206
0.3267523608
0.3423749668
0.3659441105
0.3364621034
0.3301152622
0.3383658192
0.3114229826
0.3321787758
0.3347021722
0.3444777595
0.3393214922
0.3688505072
0.3453615139
0.3240319186
0.3112266562
0.3157296511
0.3077048902
0.3117246101
0.3133247089
0.3191006363
0.3318616215
0.3134460195
0.2931648453
0.3156728928
0.3165949358
0.3159726759
0.3154916349
0.3213735209
0.3272922776
0.2999462679
0.2989068223
0.2951770203
0.2967740423
0.3120404767
0.3038687075
0.3030990542
0.333366514
0.3294218893
0.3277216472
0.3107502781
0.3009429319
0.3173728383
0.340353471
0.3480387246
0.3565220344
0.3192883191
0.3352636042
0.3215295694
0.3093307278
0.285669562
0.2885894409
0.3079245643
0.3321868191
0.3676642669
0.3873657795
0.3552360782
0.3334078417
0.3232986401
0.3131235083
0.2909486463
0.294851334
0.2980853623
0.2946351846
0.2994758992
0.2999035359
0.3400284249
0.3086700729
0.3021846256
0.2920842886
0.3148574971
0.2931554163
0.2713095178
0.2853306938
0.2937459647
0.298329994
0.330970907
0.3302028676
0.3096863031
0.3053437646
0.3193842551
0.2979398775
0.3210731178
0.3115918986
0.3121785798
0.3187638019
0.3256603878
0.3129134577
0.3151176149
0.3109768835
0.2988088784
0.3144194859
0.3180067189
0.2976837027
0.3040687216
0.3304690925
0.3226368465
0.3342037692
0.3482975809
0.3136954874
0.3007778923
0.2727538177
0.2649042204
0.2937692108
0.3062370277
0.3225510974
0.3109936954
0.3119451834
0.3236826794
0.3134476428
0.2975232369
0.2752194282
0.2743539634
0.3124513196
0.3341339838
0.331227707
0.3332050591
0.2986451819
0.276863636
0.3015333158
0.300019597
0.3448886384
0.3167642108
0.3138896969
0.3029929741
0.3079963711
0.3104502064
0.3145035411
0.3113747443
0.3326331337
0.3321626788
0.3045964895
0.3182098126
0.3295735032
0.3068624243
0.3207722249
0.2934116014
0.3236820444
0.3329935183
0.3311613517
0.3224899156
0.3144067988
0.314283713
0.301929336
0.2977415583
0.2992087003
0.317640651
0.3181261874
0.3738272419
0.3510070034
0.3047792309
0.3403312605
0.3352186736
0.3290033549
0.3167288074
0.3111168827
0.3370771827
0.2915254816
0.2930125764
0.2887656139
0.3208353981
0.3322124171
0.3394820769
0.3282907474
0.2968422022
0.2950836871
0.2819234589
0.3127315231
0.3250191382
0.308561755
0.3114420224
0.3196284481
0.3237058298
0.3030281093
0.2905894761
0.3044790025
0.3012488049
0.3260587463
0.3238708039
0.3464118773
0.3422816773
0.3397514401
0.3317347191
0.3444862635
0.3361754188
0.3186334464
0.3212849149
0.2905426881
0.2750293173
0.2707117594
0.2817470102
0.2965615259
0.3039628993
0.3099704306
0.2988934012
0.3045520793
0.320829941
0.3090971329
0.3107125636
0.3114939892
0.324770757
0.3305690666
0.3574429259
0.3492988034
0.3525480948
0.3393366894
0.3271952854
0.3151821483
0.3087751278
0.3132797734
0.3117119514
0.3272384975
0.3370939279
0.3335373573
0.3279732404
0.3345597878
0.3216606438
0.2999436732
0.3133643848
0.3350035768
0.3534198095
0.3178974733
0.3007278856
0.3116788625
0.3200576213
0.328599895
0.3147678848
0.3062540416
0.296701618
0.2835129617
0.2965015029
0.318935475
0.2957751554
0.3076200759
0.3231426385
0.322191222
0.3114353944
0.2906594034
0.3227662478
0.3138587176
0.3327109217
0.3494780479
0.3110919806
0.2913483028
0.2703683652
0.2875443614
0.2989467999
0.2959016321
0.2941009274
0.2953608293
0.2853027775
0.2984305564
0.3433211357
0.3340637532
0.3475088083
0.2995802911
0.290347648
0.3064293935
0.311658333
0.3083933227
0.2898011998
0.3042716907
0.3177026607
0.321801149
0.3097059912
0.295663853
0.309460728
0.288638506
0.2815608758
0.3002943953
0.3307113713
0.3329732745
0.3440843636
0.3018244256
0.3046197816
0.308232565
0.3042471347
0.3375667483
0.3259772588
0.3161394034
0.3377352172
0.3465011197
0.3383978235
0.3008727843
0.3144654518
0.2949687342
0.270523147
0.2623741053
0.2794341409
0.320719676
0.3440344303
0.3292952002
0.2995097944
0.3118354927
0.3032332338
0.2974358106
0.3266473868
0.3214982351
0.3306301179
0.3195654033
0.2979732773
0.3005089018
0.3104406252
0.3374157069
0.3079619698
0.3121529929
0.3440676556
0.3573651213
0.3339476233
0.3000875856
0.3178515069
0.3191723161
0.3105279432
0.3078432219
0.3050944284
0.2977145431
0.3066544161
0.309884391
0.3233141066
0.3428544105
0.3254316497
0.3486329898
0.3372153115
0.3324452232
0.3571503092
0.3352157309
0.3257287081
0.3469870191
0.329320375
0.3392367691
0.3289650668
0.3317709289
0.3237160575
0.3263653669
0.336640934
0.3248914594
0.319091364
0.3358104445
0.3082216851
0.3237119041
0.3163485815
0.3221110236
0.3303304632
0.3420072096
0.3257868617
0.3075884053
0.3366627629
0.3486795974
0.326644377
0.3400968264
0.3486438181
0.3296469509
0.3480372093
0.3417576207
0.3226706806
0.3350205904
0.325022374
0.3062133499
0.3194608393
0.2940623152
0.3104028756
0.325508196
0.3209818483
0.2983761396
0.3430459404
0.336844939
0.3058455527
0.3251562905
0.345530355
0.346753973
0.3480965974
0.3547066126
0.3523143726
0.3438637774
0.3476243771
0.3259289478
0.3031558976
0.3214549468
0.318007239
0.3271284714
0.3075632028
0.2968182987
0.3134261493
0.336342878
0.339947204
0.326890115
0.3112814931
0.303898122
0.3040464144
0.3209112467
0.3345189553
0.3199925342
0.3172472993
0.3350351503
0.3460903479
0.3394657273
0.3330049951
0.3356128136
0.3293263213
0.3096773368
0.2977982404
0.2934040223
0.2764910447
0.2869599457
0.2931051107
0.3001108893
0.3114120718
0.3140130478
0.3066383933
0.319457072
0.3255396672
0.34010972
0.3248564896
0.3313809345
0.3408678674
0.3224933908
0.3282071864
0.3122922905
0.3071475491
0.319084189
0.3328442552
0.3087033484
0.2978791482
0.3027397662
0.3250094828
0.3262269876
0.3013702813
0.3084606355
0.2985529688
0.2981670047
0.3132415882
0.322489956
0.3413420461
0.3195547228
0.3093616299
0.3048208321
0.3077424218
0.3038301086
0.3154392606
0.3167992581
0.3445210147
0.3270541884
0.3304093426
0.3399964922
0.3043679102
0.2989592167
0.303540045
0.2862295309
0.3021717139
0.339712921
0.3325431434
0.3624575839
0.3419850768
0.3160982617
0.3015649837
0.2852058621
0.2948784119
0.3024882373
0.3174685362
0.305933786
0.3114900748
0.3297458345
0.3225701151
0.3192191917
0.3370091562
0.3307118637
0.3395351926
0.3751960881
0.3253549611
0.3291639896
0.3181511711
0.3191358963
0.3105104252
0.3400091115
0.3420984946
0.3142926819
0.3174004306
0.2794485167
0.2580946297
0.2946415752
0.3032749657
0.2865507611
0.2860176848
0.3144294802
0.3460924428
0.3278075415
0.343950766
0.340505833
0.3060466791
0.2880247531
0.3058586377
0.3227596481
0.3385844711
0.3223802071
0.3263620197
0.3078297752
0.290212713
0.3406759181
0.3471790833
0.3308331919
0.3257555251
0.3147434769
0.3201360642
0.3316459235
0.3410865787
0.3304258355
0.3161712252
0.3248620969
0.3279378906
0.319468188
0.3126467813
0.3054126716
0.3089720866
0.3160376844
0.3194530982
0.3291062626
0.3478306462
0.2999250974
0.3393906963
0.3283522757
0.3310901336
0.358513653
0.3583448346
0.3088989857
0.291111643
0.2881702534
0.2930939433
0.3010763682
0.3124349938
0.3334444554
0.3366308932
0.3487901551
0.3359034646
0.3080018653
0.3129716894
0.310281568
0.282359732
0.3091318209
0.274294555
0.2696422322
0.2708624056
0.3238171075
0.3132922182
0.3367945813
0.3266972407
0.3173681003
0.3499796381
0.3575525024
0.3858155615
0.3534478491
0.3294399846
0.2882726996
0.2834202114
0.3278408953
0.3410845763
0.3309984351
0.3254876235
0.3176071251
0.3170458393
0.3112917779
0.2988484066
0.2914111286
0.2896197692
0.2899093615
0.2868953679
0.2792123329
0.2814456392
0.2924813328
0.3048749892
0.3202290627
0.3325446541
0.3238083075
0.3006303118
0.3071553771
0.3274262233
0.3233393804
0.3280982801
0.3426338884
0.3510404882
0.3423763558
0.3411284964
0.3460297984
0.3426534156
0.3264539279
0.3292955634
0.3378840275
0.3101440735
0.3277917766
0.3192299692
0.3254271557
0.3046451026
0.2815732231
0.31210318
0.3269925913
0.3280778963
0.3510576067
0.3464466738
0.3268972501
0.3258919774
0.3205440852
0.337198003
0.3313950064
0.3196756046
0.3152635715
0.3423239462
0.3380596796
0.3481033807
0.3634792083
0.3690490738
0.3561376596
0.3253859718
0.2944420901
0.2885029112
0.2979838928
0.2993510417
0.2994494316
0.3214961828
0.291168615
0.2992208141
0.3137253573
0.3211451328
0.33389627
0.3336786316
0.3349053565
0.3106597158
0.3367160904
0.3461991827
0.3253516386
0.3322718045
0.3141727572
0.3031400053
0.3172844713
0.3056933931
0.3027461651
0.3069875896
0.3324730189
0.3145990839
0.3326276218
0.3404340332
0.3236771179
0.3193756468
0.3121389142
0.3199964532
0.3249747454
0.3320542853
0.3068568956
0.3327756972
0.3168337999
0.3067379211
0.2815361497
0.2949196614
0.3053279041
0.3070787959
0.3223311537
0.317766469
0.3151063251
0.2989466884
0.2940667388
0.3185856028
0.3490759532
0.3249904923
0.3149523558
0.3201148311
0.3240142354
0.3234393589
0.337092313
0.3202082952
0.3043936762
0.2995276395
0.324736274
0.314655427
0.3034869451
0.2920227372
0.2843435912
0.3169808162
0.3190556473
0.2981130529
0.3012471236
0.2851770185
0.306222104
0.3184920848
0.3238930275
0.3123106453
0.3231892141
0.3297101476
0.3577031702
0.3470770487
0.3328599365
0.3388098105
0.3346875398
0.3090212465
0.3421673927
0.3613902665
0.3439645735
0.3018252532
0.3121629616
0.3124512603
0.3102005094
0.2970377308
0.3112155292
0.3116844477
0.3491031169
0.3344417156
0.3328127298
0.323571982
0.3228334448
0.3218014932
0.3382435363
0.298395
0.2773882462
0.3019682351
0.3316764958
0.3246113283
0.3215730065
0.3358507968
0.3609743773