/*--------------------------------*- C++ -*----------------------------------*\
| =========                 |                                                 |
| \\      /  F ield         | OpenFOAM: The Open Source CFD Toolbox           |
|  \\    /   O peration     | Version:  2.4.0-MNF                             |
|   \\  /    A nd           | Web:      www.OpenFOAM.org                      |
|    \\/     M anipulation  |                                                 |
\*---------------------------------------------------------------------------*/
FoamFile
{
    version     2.0;
    format      ascii;
    class       volScalarField;
    location    "0.0006";
    object      p_O2;
}
// * * * * * * * * * * * * * * * * * * * * * * * * * * * * * * * * * * * * * //

dimensions      [1 -1 -2 0 0 0 0];

internalField   nonuniform List<scalar> 
5120
(
0.1184589467
0.1153363745
0.1066820919
0.09393441015
0.09061137232
0.1108289468
0.09995008276
0.1095176381
0.1011189906
0.09644127053
0.08870241569
0.07527618953
0.06555469033
0.06667185513
0.07846329374
0.07236956241
0.06985510699
0.07884770038
0.09432719062
0.1032517458
0.07929603311
0.07482643939
0.07836906268
0.08693648259
0.09709818029
0.08517341833
0.09625122595
0.07888823687
0.09322915954
0.08544782031
0.08780574563
0.0928604656
0.0941388095
0.1090718931
0.091841337
0.09641998532
0.1017284623
0.1025422503
0.1035734093
0.09689730369
0.1007991732
0.08297959607
0.07361132579
0.07476626918
0.07394796188
0.08974028822
0.08759802574
0.09104057766
0.09465899121
0.09205591722
0.1126008527
0.1185474317
0.1056314833
0.09485344012
0.1027046139
0.1021493147
0.0997073633
0.1049233824
0.1015405562
0.09493628747
0.087319583
0.1116979941
0.1089933519
0.09246900465
0.09582046666
0.08622438973
0.07382868055
0.08228148341
0.1013795088
0.1064970897
0.08675505977
0.08193964065
0.08306180069
0.0889370612
0.09309010353
0.08915912986
0.07857551725
0.08419061326
0.08469556211
0.0819901569
0.09877158114
0.09924653571
0.1081395018
0.1005349683
0.09047710794
0.08627876634
0.08881778738
0.09261844146
0.08801403539
0.0791630104
0.090845529
0.1022935127
0.1062728444
0.09402238882
0.08268176945
0.07756640559
0.07967934737
0.09146170462
0.1023074512
0.09723489726
0.08792840965
0.0773424051
0.07745392361
0.07905378024
0.08125756472
0.09089737538
0.08330324906
0.08822560202
0.09809155528
0.09651747551
0.08242974634
0.07984507307
0.08217276965
0.09342975899
0.1028176437
0.1089557267
0.1128357797
0.1000745891
0.0849467606
0.09124925314
0.1001512354
0.1009566284
0.08096220284
0.09027945165
0.1062415193
0.09454421753
0.1065099775
0.09900875878
0.1039170125
0.1035595771
0.1094759894
0.1109694333
0.1041451971
0.09218439398
0.08264048227
0.08922420647
0.08184484082
0.08199719338
0.1047377975
0.09042238349
0.08457527889
0.0827630843
0.09191551726
0.09759100899
0.106069774
0.1015028041
0.09452377137
0.08611210013
0.08758951967
0.1007664844
0.1080068005
0.1008259576
0.105424622
0.09421321988
0.08987821007
0.09553123101
0.09575672118
0.09589102038
0.0943270055
0.08826485131
0.1073578582
0.1034577193
0.1029836543
0.08845088508
0.07910504219
0.0811650762
0.07621172754
0.08343812565
0.09073090412
0.08478750783
0.07992180643
0.07996425419
0.1064700579
0.1205087552
0.1110544504
0.08420219366
0.08573559401
0.08643694243
0.08806667461
0.1122468975
0.08219847235
0.07763838268
0.07369202749
0.08666143471
0.1003670938
0.09996903972
0.0966066279
0.07988785113
0.08210521557
0.08515054678
0.09891670902
0.09837615202
0.09001167193
0.09592848654
0.1108493782
0.1121401173
0.0892511352
0.07409343912
0.09009778254
0.09507438128
0.08660613994
0.0921632014
0.07992022951
0.07917405576
0.09589916811
0.1182847085
0.1111304472
0.09781426115
0.08153930162
0.09349645216
0.09284424085
0.1084283647
0.1114451269
0.09840316043
0.1024385108
0.1069627157
0.117888285
0.1100921329
0.09596430449
0.07580352158
0.08569416743
0.09055974869
0.09649194993
0.09984095521
0.08769539717
0.105905056
0.1087748704
0.1220232192
0.1177551342
0.1180074541
0.1016723322
0.08731410471
0.0928921857
0.09461628939
0.08649378475
0.08602117028
0.08439046755
0.08749789301
0.09141835853
0.09164113631
0.09858831981
0.09417785378
0.09196210395
0.08486426237
0.08548918666
0.096653039
0.09364117238
0.0952478459
0.08447361395
0.08547345695
0.07977159399
0.08586232064
0.0843340274
0.07954307065
0.09645806957
0.0936464219
0.08623861196
0.09569905107
0.09873276222
0.09969236694
0.0873016194
0.07726909249
0.08151571331
0.09204652803
0.1025539738
0.09907941636
0.09022491943
0.09090747858
0.09088557498
0.08504784481
0.0795744293
0.08408565208
0.092967798
0.08701858703
0.08911076879
0.09912908127
0.09995084017
0.09545470894
0.1044512154
0.09827418642
0.0757668686
0.08058781075
0.07398041849
0.08336365365
0.07354435719
0.07006367699
0.07941669966
0.09374067557
0.09615527472
0.09467908299
0.0874400022
0.08967864373
0.09364690535
0.09816548309
0.08368955304
0.09476141784
0.1008533449
0.09874867844
0.08615729072
0.07937690563
0.1139943157
0.1036691262
0.1079525668
0.09967428649
0.1023475739
0.08909865641
0.08657101249
0.08477849989
0.09062977328
0.1081001212
0.1069192778
0.1051597026
0.1103894847
0.1023039348
0.09339955308
0.08659486034
0.08455052836
0.08435018318
0.09202364069
0.102642113
0.09587173762
0.09167040668
0.09435334509
0.08707071571
0.1032139052
0.1043776794
0.1079526885
0.1029481209
0.08636552481
0.07027140954
0.0656965372
0.0827689552
0.09006867323
0.09036640332
0.09407980982
0.08486858504
0.08419380518
0.08651825558
0.07484207218
0.0847497737
0.08327619612
0.09054170375
0.09742013421
0.09923110276
0.09493117363
0.091740579
0.09410894903
0.09980242139
0.1016695639
0.1057614057
0.1029358754
0.09276569727
0.07963288906
0.08185410654
0.08600951822
0.09493478716
0.08482213486
0.0794491082
0.08181908109
0.08194496629
0.1000628701
0.1022100239
0.1005267181
0.106131089
0.09220569889
0.09343828372
0.09993456265
0.1019116443
0.1057961141
0.102397008
0.09723125135
0.102935001
0.1133891651
0.1190785611
0.115886048
0.113456568
0.1054338286
0.1099926414
0.1001238912
0.09804562673
0.1058543189
0.1110214957
0.1181241721
0.1127191873
0.1155254407
0.1316291572
0.1144168812
0.1053644723
0.07864297696
0.08611530709
0.08909179491
0.1008173468
0.1003331799
0.09886103402
0.093923181
0.09370908153
0.1084218699
0.1087671802
0.1017328167
0.1021206146
0.09277219092
0.09934713379
0.1158511037
0.1148841388
0.1020371944
0.09127180277
0.09279814151
0.09341369381
0.09064750934
0.09770450989
0.08922045015
0.09033510441
0.09453997653
0.08367367918
0.08618565201
0.07427013744
0.07586978443
0.08656120193
0.1007300496
0.116083863
0.1088180336
0.1167137554
0.105530476
0.09272090757
0.07602201377
0.06881216187
0.0718950634
0.08347830563
0.09183801238
0.08028916473
0.08921562813
0.08956993345
0.09029871388
0.08830704158
0.09216311911
0.1089568843
0.1137791769
0.1101458904
0.09979460886
0.09899803518
0.09050402392
0.09538633231
0.0914403565
0.08333829
0.09383264525
0.1125806079
0.1145569363
0.108421146
0.1039147806
0.101810628
0.08962081244
0.09112590216
0.10383531
0.07688358069
0.06968891189
0.07017743419
0.06609867056
0.07386056353
0.08006725895
0.09008442646
0.08714859665
0.1060060378
0.1060811722
0.103135071
0.1037377028
0.1102646237
0.103870813
0.1016967846
0.1044890768
0.09111992156
0.09152704577
0.08789138319
0.07491992775
0.08660964997
0.08648596247
0.08523144464
0.08330326262
0.08866973559
0.08371420339
0.0727203744
0.09260920568
0.1042756642
0.1074430404
0.09848472707
0.09844605447
0.09011849799
0.09420208209
0.09851086132
0.08434408722
0.09230030125
0.1018328999
0.1032627724
0.1166328204
0.1056231964
0.1029087776
0.1032116664
0.09298571766
0.084576853
0.08015735543
0.08626577786
0.09787262247
0.1042451061
0.09327949527
0.0864113006
0.08287409951
0.08930197598
0.09056981408
0.1066737369
0.1062609968
0.1090411787
0.09608218353
0.0909693876
0.08680036273
0.07538590751
0.07138635724
0.09751025541
0.1080499996
0.1218576214
0.1140633102
0.09705204587
0.1012692166
0.1104442263
0.1209017835
0.1148354893
0.1037626791
0.1009808049
0.1015536554
0.1008568607
0.1005619284
0.08488551966
0.09247544571
0.09329390661
0.1077155082
0.1008450662
0.09995045232
0.09398620242
0.08312455117
0.0724631922
0.07548281796
0.09344821801
0.0963308406
0.09821054449
0.1096484052
0.1033139803
0.1164436574
0.1130521734
0.09940037007
0.09685968137
0.1120231589
0.1224237972
0.121023838
0.117936252
0.09071483911
0.09366152113
0.1077009353
0.10798966
0.1142027758
0.09584996751
0.09965824113
0.09924836887
0.08238692355
0.08752651961
0.08639439202
0.1072888374
0.09434223392
0.08897715913
0.09777212258
0.07883938218
0.07768279671
0.07736870237
0.08713770298
0.09499700085
0.1008165687
0.09516894342
0.09556126536
0.1040330894
0.0974167387
0.1038483446
0.08612893609
0.0911571801
0.1041411767
0.1071704782
0.116373659
0.1118797931
0.112304022
0.09036403244
0.09244235986
0.1048344062
0.1113319364
0.1130614554
0.1089575767
0.09325695921
0.08825014862
0.1024262354
0.09167804286
0.0806433824
0.09001551053
0.08950154044
0.0926400066
0.1028556347
0.09754124683
0.0808410536
0.07891119707
0.07959647527
0.09340605143
0.1027934547
0.109483175
0.1020516205
0.09217123483
0.07465007611
0.0909613915
0.1152652687
0.1030140738
0.101158607
0.09846123166
0.09817959699
0.08617544352
0.1028313251
0.09821355921
0.09037613918
0.08047632827
0.08690887292
0.1000005479
0.1011351066
0.1026765411
0.09410247335
0.09699678476
0.08635805064
0.09365288193
0.1006026514
0.1018823791
0.09392282091
0.09107253718
0.0900256767
0.094146657
0.09673514563
0.1076511294
0.09599009149
0.09620029832
0.0875728298
0.08262678031
0.08939695966
0.1009008751
0.1049451048
0.09383246028
0.09631620814
0.0950008641
0.09276585214
0.09043727099
0.09930417522
0.09179629589
0.09005112501
0.0959279787
0.1015139369
0.09124987861
0.07816148679
0.07798377288
0.08794030544
0.1056871069
0.08840499494
0.09460873255
0.08508865527
0.07274700168
0.07046685898
0.0857252652
0.08967548302
0.08288422433
0.0861312514
0.08015212865
0.07815721568
0.08337027347
0.09888258238
0.0893580321
0.09017259219
0.09293648056
0.08181652623
0.08305595185
0.08081665618
0.08175748155
0.09431716127
0.09381652733
0.08793881829
0.07490195129
0.08113266766
0.08966747199
0.09556858375
0.09104104052
0.0810724357
0.07980978754
0.0880339844
0.07148971686
0.06860958251
0.07108598917
0.07167297188
0.07040726597
0.08122096983
0.08157225288
0.07466723346
0.07957769414
0.09067984907
0.08825242708
0.08929807304
0.09729625512
0.08008118273
0.08509708717
0.08447175618
0.08885350631
0.093072198
0.09737635939
0.09727382289
0.09473577923
0.08983143263
0.1029064929
0.1002656314
0.09496712608
0.09062085099
0.08967787228
0.07937415276
0.08641078491
0.08414421666
0.08654639171
0.09057196636
0.08872241073
0.08571199404
0.0859498256
0.09027262735
0.08578075563
0.08554707893
0.08955559709
0.08566579076
0.08882922922
0.08792016059
0.08082789701
0.08519556473
0.08729138645
0.09512221951
0.1090259545
0.1031025515
0.08570368812
0.09221623332
0.09712337155
0.08837180066
0.07738885922
0.09014593203
0.09428638169
0.08297720132
0.0862465966
0.09782154488
0.0875414474
0.09891848154
0.09862184281
0.1027231415
0.1061549377
0.09503839317
0.09531699209
0.0926334459
0.09944003373
0.09933888282
0.1000473355
0.09984314178
0.09680697138
0.08756536928
0.09385172775
0.1010829338
0.09600290689
0.08058531375
0.08121201366
0.06895527481
0.07828821373
0.07047730891
0.07747102192
0.07893746334
0.07939014696
0.1010142277
0.0914126773
0.08366216803
0.08015344806
0.07681977966
0.07826251584
0.08544750294
0.0974763187
0.09731777989
0.1181343125
0.1158446548
0.1086459175
0.1107945144
0.1022347781
0.09390730334
0.09637880601
0.1022961682
0.08590236642
0.0934592004
0.09767625022
0.07861780028
0.07870450332
0.08754411349
0.1035768218
0.1035191205
0.09995128307
0.09583333129
0.105546562
0.1040665504
0.1177429811
0.1209871672
0.1100483517
0.1022433015
0.08919562407
0.0775095814
0.09193764712
0.09868714509
0.09656464628
0.09328297117
0.09929067202
0.09594509922
0.1051342478
0.09152929265
0.08387226246
0.09587561663
0.1079687601
0.09471747285
0.1065115424
0.1034363726
0.1007332605
0.0789901629
0.09749194774
0.09301343257
0.09293627144
0.09313350605
0.09108811882
0.07925914835
0.08467451485
0.09563326288
0.09505325039
0.09802462165
0.1024824138
0.09547640113
0.102882667
0.1072741307
0.1132377304
0.1091594246
0.08276735574
0.08716840885
0.09664030374
0.1153035121
0.1297859019
0.1188068352
0.1153879595
0.1109809517
0.1007421019
0.1062118714
0.09814461007
0.1114556151
0.1069659469
0.1102766788
0.1116835418
0.1066436795
0.1020370836
0.1002969981
0.09644269041
0.08253064668
0.105627246
0.09985050751
0.09609784699
0.1115838059
0.1120752973
0.1057451024
0.1104034198
0.1016448677
0.09363470686
0.09655039883
0.09903650657
0.09347473521
0.1019060297
0.09752095726
0.08356112558
0.1061278066
0.09631942896
0.08994614038
0.08991072223
0.09505665386
0.1088821846
0.1096666243
0.100910177
0.08830321506
0.1005647525
0.1043854283
0.09751102161
0.09768691263
0.08774725848
0.08134915839
0.07692452642
0.07822978213
0.08289760192
0.08666815071
0.07729191901
0.0759693033
0.08990908075
0.1055123315
0.1107469894
0.0996017189
0.1077546791
0.0978430283
0.09491963312
0.08711699837
0.08870695933
0.1089353692
0.1070597329
0.0965916267
0.09183174356
0.08622937175
0.09907937458
0.07932633173
0.07759518997
0.08123758776
0.08556377331
0.09067899846
0.08297381599
0.08777419802
0.1004217601
0.1149743428
0.07088427886
0.08674256012
0.08650424751
0.08525497171
0.07894602327
0.0823691078
0.06754462315
0.07279403795
0.08593184663
0.09105272501
0.09455858071
0.105239648
0.1036476973
0.1023679808
0.09389540324
0.08502404739
0.09784438348
0.09214956831
0.07238679314
0.06805167105
0.09292317864
0.08772117403
0.09381752171
0.1015527222
0.1081291235
0.111613062
0.09534951218
0.1024044125
0.09932353838
0.08627872077
0.07754924976
0.07433045838
0.08924357671
0.09063662501
0.09497399353
0.09866437836
0.0916471619
0.0891785409
0.0826933796
0.08330210988
0.1117191248
0.108313371
0.09277329916
0.09375945518
0.1098018647
0.09724490694
0.08553324442
0.08547751359
0.08713013968
0.08366449877
0.07031068625
0.07845034771
0.08500253887
0.08214974336
0.08747192026
0.08839098021
0.08488140072
0.08004801599
0.08198306572
0.09053012684
0.07108119941
0.06482085676
0.06369775043
0.06383079494
0.065168064
0.07556036047
0.07846979119
0.08323254949
0.0738664083
0.09978907818
0.1036015167
0.08975687387
0.07945392676
0.08241885767
0.07403311374
0.06951591404
0.0770146191
0.08001016536
0.07593712926
0.07726388349
0.07075802553
0.07780882826
0.0858130345
0.08563959683
0.07881422489
0.0751387306
0.07899727708
0.08140645455
0.0880559665
0.07921575419
0.07089819339
0.07332747851
0.06949612019
0.07683166249
0.09239820396
0.09263291283
0.0894169338
0.08618988037
0.06513643088
0.07044411815
0.08982552236
0.08892823245
0.09339449198
0.09223144308
0.09017977696
0.08116110044
0.07232951767
0.06839752811
0.0722451312
0.08037803227
0.08487099069
0.08095271682
0.08588572646
0.07431327501
0.08036838069
0.08404481399
0.08561379822
0.08779529274
0.09584173349
0.09575451705
0.1025732924
0.1007722947
0.08581255186
0.08400061775
0.08287729408
0.08977166622
0.09445432521
0.09971948174
0.1047574108
0.0897139003
0.09144416383
0.09006218305
0.08280579495
0.09275847331
0.1042485755
0.09532523391
0.09291130011
0.09091400825
0.08906241172
0.09730588144
0.08398473171
0.07897825364
0.08211520141
0.07924885934
0.07958467946
0.07863266582
0.08674564392
0.08557248396
0.09094361458
0.06852071567
0.06617159533
0.07244420238
0.08354775939
0.09784677255
0.08682350693
0.1101468221
0.09628826839
0.09119997337
0.09369190157
0.08945245173
0.08132632982
0.08284524935
0.0846899125
0.07524887143
0.07793628709
0.1034250727
0.09361077062
0.08788541722
0.07554115239
0.08693059368
0.09648917876
0.08706782273
0.0760716949
0.07915189936
0.08511502628
0.08632267015
0.07797246304
0.08740321139
0.08342222936
0.07871623679
0.1004032721
0.1083113152
0.09693598736
0.09940978018
0.09673862026
0.08785764625
0.09318801992
0.08730385515
0.09928436634
0.100607247
0.1071126027
0.09387032993
0.08814294952
0.07383546524
0.0649569071
0.0793671781
0.07675674535
0.07776879773
0.0749181253
0.08329545379
0.1148868845
0.1052276706
0.1034958737
0.1052584766
0.09795248789
0.09660230246
0.1040711055
0.1093986468
0.1003329502
0.09157872568
0.07782321658
0.08285557132
0.08708919982
0.08461095093
0.09268363725
0.08988638671
0.09136095356
0.1016308537
0.09654609127
0.1037193105
0.09607722253
0.111963655
0.1159521629
0.1181810831
0.115666044
0.108809715
0.1073946553
0.1168162883
0.1069585579
0.1224037917
0.1216622802
0.113029772
0.1072164298
0.09733980437
0.09334203748
0.0941870281
0.08971125879
0.07984682912
0.07811239052
0.0816644999
0.1074287733
0.1104678338
0.08353382307
0.0835454704
0.0915542307
0.1102985298
0.1114794203
0.1189067714
0.1171701588
0.1057715315
0.09904712933
0.10647725
0.1114572972
0.1178478264
0.09643818485
0.08179756734
0.07344015661
0.08409186124
0.08458276449
0.1031016415
0.08774437256
0.0882581778
0.09437543801
0.09241172168
0.09253792244
0.09889975814
0.09897168876
0.1064948567
0.1108155066
0.1175296256
0.1227750116
0.110243957
0.09443487999
0.08275353706
0.09522297135
0.09186623528
0.09010200886
0.1031229436
0.1016940191
0.09881658412
0.09050212775
0.104817995
0.0931772529
0.09599963316
0.1000998224
0.1009683202
0.09923154452
0.09949384992
0.1114275316
0.110569672
0.09349745547
0.08150792158
0.1039184732
0.1122562319
0.09960119481
0.09959335428
0.1053308939
0.1125581993
0.1053145483
0.1040447904
0.1005381675
0.1143457365
0.1096184936
0.09151729754
0.07079567094
0.06517164334
0.07189362252
0.07646094962
0.09161904602
0.07321057937
0.08343385994
0.09091907359
0.08864936172
0.09138839934
0.09472763528
0.1118708107
0.1145090211
0.1017548344
0.1096606544
0.1054014894
0.09753147548
0.09205733097
0.07664270599
0.077778004
0.07014548223
0.06942489593
0.06745080332
0.07754412937
0.08255002937
0.1125768702
0.1023707087
0.1019782707
0.09756507731
0.1029501104
0.09037517608
0.08522415796
0.07743735307
0.09442492115
0.09479771152
0.09222155582
0.09201835335
0.1049802712
0.0941278126
0.09243651031
0.07257446447
0.06400009244
0.07717972539
0.07398254868
0.08350845379
0.09897656264
0.0942535435
0.1010399187
0.0943879003
0.09650070246
0.1021549136
0.09594928834
0.08978861647
0.09459139371
0.09784639575
0.09709378987
0.1041029397
0.1020712139
0.1039627059
0.09353440547
0.08470505639
0.09244521173
0.09638216941
0.09430044709
0.1000371748
0.0906202578
0.08435257664
0.08493212176
0.08581845664
0.1017360149
0.1023341612
0.1043217309
0.1142738611
0.1115916878
0.1008353739
0.1135630395
0.08820760459
0.09047338678
0.08119671522
0.07714778212
0.09101473066
0.09003049176
0.09100825529
0.08826671104
0.09147852046
0.08534169022
0.08749828175
0.1086664759
0.1000999015
0.07279097282
0.08462315725
0.08711750366
0.1000278656
0.09361185669
0.1018212179
0.09609816909
0.09547092042
0.09622547063
0.09988731524
0.1000148898
0.09170140364
0.08693735363
0.1005416934
0.1041743642
0.08501063067
0.07784968887
0.0900210308
0.08300206189
0.09229224439
0.09237019901
0.07930488177
0.07884827086
0.09143783566
0.0898732276
0.1015786121
0.0990477068
0.08241470441
0.08118238506
0.08903440543
0.101474383
0.1074104172
0.1040772234
0.08403326913
0.08791647215
0.07848302106
0.08584606246
0.07977901178
0.08678575043
0.07931606966
0.07345457448
0.08321966933
0.07089615646
0.08307230652
0.08713510198
0.07861006232
0.08041129521
0.07836830423
0.0813820995
0.07772458451
0.08485645775
0.08719904001
0.1093371732
0.1044666754
0.1012070775
0.1005982236
0.0823154674
0.07738964641
0.0815659723
0.07561504725
0.08514047818
0.07573658014
0.09369993621
0.08930568812
0.08483678326
0.09702290179
0.09390586784
0.09976967372
0.09478847539
0.09689012916
0.1057656236
0.1014892059
0.07754187324
0.0734702997
0.07822139581
0.09126321861
0.1060376398
0.1003341698
0.09188373256
0.09494429684
0.08768340581
0.07846059012
0.06411514624
0.07806812347
0.07676056885
0.08489202801
0.08544563228
0.06352422943
0.07672136153
0.08593840182
0.09055183627
0.1025143194
0.09545854348
0.09399783198
0.1068286641
0.09771973116
0.09233032084
0.09371695396
0.1019357793
0.09297476581
0.09382063934
0.09481506529
0.08097932309
0.08540779668
0.09193990618
0.08782048726
0.08283784646
0.09111687253
0.09009055326
0.08677925297
0.07312769263
0.08832687334
0.09491672018
0.1000467674
0.08496502959
0.09432674271
0.09955390352
0.1035093576
0.09218895692
0.1058684437
0.1041200825
0.104602798
0.1019986303
0.08609411818
0.08101318165
0.08370909539
0.08869730659
0.07421935336
0.09271913306
0.09744514084
0.09581316106
0.08325579403
0.09278173842
0.1011571931
0.09989942926
0.1147267725
0.101067121
0.1084691829
0.1101901263
0.1054412455
0.09515827065
0.0847588723
0.08346408822
0.09316082053
0.08529936386
0.09485538739
0.0858327049
0.07985569813
0.06882026104
0.08075790699
0.1006536733
0.1155554458
0.1007881838
0.09140839027
0.0815048758
0.08712142486
0.08625686443
0.09675726466
0.1162858912
0.110668297
0.1050713333
0.1118462052
0.1049763217
0.101400411
0.09025157439
0.08400925471
0.0819218969
0.0666696843
0.07088061707
0.06958013676
0.07018849968
0.07925687683
0.08082252379
0.09348709752
0.09436071323
0.1036637078
0.09643476184
0.0982550314
0.09213018333
0.09477906746
0.109020576
0.1055000816
0.1097899799
0.1074368404
0.1109133752
0.1089276657
0.0914373593
0.08320471895
0.08247177132
0.09240460171
0.09024732972
0.09357711738
0.1022071751
0.1077291052
0.1152586639
0.1234756989
0.1218228793
0.1104198595
0.1077460617
0.1026386733
0.1056768947
0.1265331952
0.1191865341
0.1119738781
0.1084515441
0.09672989646
0.09580705044
0.1221524032
0.1103046308
0.1024227899
0.1065014161
0.1032370185
0.1032356073
0.09924613595
0.1046605694
0.09430997343
0.09011567763
0.07382741252
0.08325427617
0.1006055294
0.1152226997
0.1077252482
0.1178017423
0.1295094595
0.1175721076
0.1014042023
0.1104004845
0.08209694451
0.06809079945
0.08360473208
0.09131491694
0.1014353343
0.1089119924
0.1052823067
0.1034183069
0.1036675924
0.1012005462
0.08732571512
0.09886398318
0.08930888194
0.07789840801
0.08486865319
0.08746764652
0.09251161679
0.1023371603
0.1097317459
0.1060520314
0.08652278856
0.0694635852
0.07442935078
0.08847077474
0.114761924
0.09611098397
0.09743889713
0.08587300722
0.0839881193
0.07982693447
0.09656641497
0.09120286392
0.08865918164
0.09600122562
0.1059926928
0.1035772588
0.08726247504
0.07719611249
0.07763022426
0.0762792016
0.09782221118
0.1024319207
0.09195515881
0.09154117712
0.105833419
0.09225355019
0.07440394168
0.07365754393
0.06982714948
0.07513505782
0.07587292719
0.08652959548
0.08760387939
0.07909353323
0.08344500277
0.09756377287
0.08919327848
0.09773569841
0.1047089785
0.1005479364
0.09473981704
0.09910904726
0.08820732981
0.08689785749
0.08405876126
0.08910169872
0.0751930516
0.07547599235
0.08014342678
0.07709039135
0.07248227831
0.07969515023
0.09048856636
0.09424290286
0.0771306214
0.08628117057
0.07500103357
0.09035704204
0.09353520298
0.09474092266
0.1078056173
0.09745627597
0.1051543461
0.09884527146
0.08658435055
0.09345382067
0.08613753887
0.09006490464
0.09096104912
0.08287274318
0.0825566186
0.08111427129
0.08245026796
0.08121291894
0.07676703445
0.08437187471
0.08794530881
0.08261546154
0.08956413119
0.1022220209
0.1046667019
0.1037475435
0.09358837961
0.09450448807
0.09838649854
0.1061648568
0.1121486959
0.09368170172
0.08562465685
0.08709969965
0.0813619506
0.07269872196
0.08617466731
0.09095301684
0.09287907301
0.09697287296
0.08926951931
0.086611146
0.09952568763
0.1041876714
0.08773287648
0.07950116089
0.08712964225
0.09385143963
0.08490290889
0.06875481118
0.06753144553
0.07553071459
0.0831985607
0.07136398871
0.08393623436
0.0897596022
0.08186181225
0.08339226937
0.08438468105
0.07738463375
0.09780768083
0.1003027178
0.1045954864
0.1006710204
0.08444037751
0.0852771477
0.09029753663
0.07946526767
0.07868938436
0.07840102826
0.1054641331
0.09261348341
0.08051389492
0.07663701615
0.08112181296
0.08014888627
0.08593550814
0.09974465716
0.1121240771
0.112852669
0.1256735628
0.1244126969
0.119372684
0.08950820635
0.09709216854
0.09255390602
0.09605289275
0.1000476459
0.09678243911
0.09280557047
0.09228992555
0.09373264457
0.09166878506
0.0844884859
0.08491090413
0.07907621442
0.08897116224
0.0920100626
0.09734207774
0.1073423999
0.08401493157
0.08985328477
0.09081669681
0.08631184841
0.1179837932
0.1168737736
0.1072160151
0.09480918324
0.09004100874
0.08708007327
0.08249005157
0.0704726886
0.07374599566
0.07686257766
0.0911995549
0.08365648061
0.07304717102
0.06564756899
0.06152615857
0.0638710969
0.07618496362
0.08247307777
0.08629531
0.09995492411
0.1014955595
0.09688926578
0.09096709308
0.08449161806
0.07955489701
0.08128203849
0.07826780768
0.08276588382
0.08463887213
0.09457595866
0.09023919714
0.08199062646
0.09748791552
0.0997859494
0.09515936146
0.1106796595
0.1076665606
0.1030759285
0.1114695827
0.1020328482
0.1015534815
0.09518771987
0.08908998701
0.08417167628
0.08814470272
0.08791524109
0.07692150924
0.09290090474
0.09011081579
0.1009705072
0.09893682452
0.09407114831
0.09854708966
0.09882524352
0.09756754453
0.1019740041
0.103165828
0.09687287402
0.08609559876
0.1097450871
0.08457510007
0.09885115848
0.09057360988
0.10973692
0.1019828168
0.09478604853
0.1038028497
0.1055630032
0.1130130362
0.1088047302
0.09946251842
0.08560154903
0.08197530697
0.08778290674
0.09114206119
0.08650579004
0.1022991737
0.1120949181
0.1060895416
0.09081342953
0.1061734945
0.1070828176
0.08907441049
0.08289904782
0.09305798405
0.09959975971
0.09059877157
0.08810138546
0.07852279954
0.09077270754
0.1008435796
0.09649965374
0.127127621
0.1273699635
0.1070025926
0.09128504439
0.08579015064
0.07871519027
0.0700248423
0.09453882178
0.09064774356
0.08930799439
0.09984147275
0.09933285224
0.1018032409
0.08947191579
0.08676829827
0.09118965682
0.09293164829
0.0939438758
0.0872547568
0.09698557971
0.09279649557
0.1021271657
0.1106427744
0.1289462484
0.1151163854
0.1031578168
0.09140830498
0.08477329085
0.09732579935
0.1116892844
0.1226865218
0.1058429751
0.1030739503
0.08218953392
0.07997691258
0.064342465
0.07361228257
0.07363476561
0.09624944374
0.09729726863
0.1048161672
0.118252278
0.1102774832
0.09822077737
0.09217473654
0.08959843888
0.09372475547
0.09432554396
0.08304061035
0.08494324816
0.08999829121
0.1004465962
0.09553507969
0.1113126436
0.09761348116
0.09743366404
0.1013068012
0.09346030393
0.09769327746
0.09409916315
0.09525936961
0.08277089117
0.07482568624
0.07044034848
0.09289829992
0.1090370111
0.1132728246
0.08616674117
0.1043663315
0.1052465302
0.08464106392
0.08768210804
0.09748852736
0.09482379699
0.0959366237
0.106483995
0.1081628248
0.09779712821
0.1038079201
0.0965834703
0.09262008328
0.1039804254
0.1018766853
0.08599783275
0.07819597585
0.06871329037
0.06267046576
0.08247999013
0.07424252909
0.07539706673
0.08571784785
0.1009600926
0.0987230279
0.1014065579
0.1245515138
0.1133780948
0.1078315731
0.106185112
0.09092587144
0.07677201537
0.07855956248
0.07719804355
0.08693276403
0.09190277141
0.09774057596
0.1000934443
0.09077095756
0.08471618533
0.07474591176
0.07957225428
0.09158264741
0.08814013556
0.08803326714
0.08167359606
0.06778064875
0.07754145323
0.0972915609
0.09837129316
0.09996469734
0.0903340999
0.07765230405
0.09233160593
0.1055217542
0.1066368571
0.1122773197
0.09656747085
0.0880699561
0.07782051168
0.07415612403
0.08779817515
0.07965956905
0.08332924682
0.09052166216
0.1010542994
0.1026753858
0.09033155024
0.08608527691
0.09046030319
0.1010553257
0.09968561263
0.09705200329
0.08151618347
0.08153262462
0.08145867546
0.07129490817
0.08401314023
0.08490306454
0.07570362365
0.08579310358
0.08501712329
0.08132414354
0.0866277699
0.08235076609
0.08544432725
0.07173106977
0.06832451472
0.08282821581
0.08180538796
0.07594221026
0.08940976635
0.1040669699
0.09262905742
0.09145070335
0.08938077015
0.1059043184
0.1030378733
0.09386430837
0.09510440506
0.1014149229
0.1044230399
0.08758199176
0.0699702014
0.07574620035
0.07312057446
0.07340330494
0.0724818366
0.07266753891
0.08930131473
0.09709586015
0.090135271
0.107190402
0.1070651127
0.1171605266
0.1205936857
0.1076154695
0.100407306
0.1032269404
0.1039573318
0.1163253015
0.1011549458
0.0879169696
0.0935782675
0.1033657672
0.09548745751
0.09482214313
0.101960487
0.09175484954
0.08686891767
0.08153519801
0.08027968264
0.09109335531
0.09738974165
0.1024151661
0.1044850669
0.0924360743
0.08600835026
0.0837061142
0.1053635506
0.09450742601
0.1007958217
0.1056404436
0.1060410284
0.0998961192
0.09707919343
0.09681007275
0.1014991357
0.1126479685
0.1146559523
0.1049308117
0.09589004848
0.08420265072
0.1041903593
0.1132161421
0.1042383804
0.1037089628
0.1138038964
0.09936286115
0.09726912976
0.09701149831
0.08321388526
0.09131375606
0.1048623025
0.09536262632
0.08967006541
0.09838642086
0.09639576534
0.08788427646
0.0774204992
0.09037661684
0.1089357042
0.1077023779
0.09817843063
0.1067354852
0.09569046594
0.09671000506
0.09525916563
0.1050242942
0.1014343826
0.0808939533
0.07717586541
0.08216387089
0.09004534382
0.08234866769
0.08646048889
0.0854711388
0.08462070247
0.08222050784
0.08930899718
0.09038952289
0.09094918279
0.1004001267
0.1029867165
0.09763006231
0.09918006654
0.08797631648
0.0894381039
0.08815046082
0.08284963377
0.09548871877
0.09742265177
0.09548932996
0.09119376302
0.09702867803
0.1014938114
0.1060989553
0.1120524715
0.1067417896
0.09993819323
0.09331018866
0.09301330044
0.0809849425
0.08231362742
0.09633325572
0.09378261552
0.0845133918
0.08598292447
0.09313996997
0.08848901862
0.09382616263
0.1040430846
0.1040421143
0.09661704159
0.08399007445
0.0947835303
0.09152455862
0.08073508026
0.08313838009
0.09031913381
0.0820378519
0.1002609769
0.09327297641
0.08581089834
0.07593086699
0.08793969064
0.09813012309
0.09552518835
0.1037566189
0.09210698093
0.09979125697
0.08914784981
0.09565527937
0.1127185114
0.106781243
0.1118896256
0.1098655573
0.1044597792
0.1078474269
0.08725963038
0.09864631711
0.104711406
0.1047019567
0.09509392842
0.09006588542
0.09886606425
0.1099712543
0.1046006565
0.103645645
0.109444795
0.1106901125
0.1130034887
0.1141117435