/*--------------------------------*- C++ -*----------------------------------*\
| =========                 |                                                 |
| \\      /  F ield         | OpenFOAM: The Open Source CFD Toolbox           |
|  \\    /   O peration     | Version:  2.4.0-MNF                             |
|   \\  /    A nd           | Web:      www.OpenFOAM.org                      |
|    \\/     M anipulation  |                                                 |
\*---------------------------------------------------------------------------*/
FoamFile
{
    version     2.0;
    format      ascii;
    class       volScalarField;
    location    "0.0006";
    object      rhoM_mixture;
}
// * * * * * * * * * * * * * * * * * * * * * * * * * * * * * * * * * * * * * //

dimensions      [0 -3 0 0 0 0 0];

internalField   nonuniform List<scalar> 
5120
(
4.60472e-06
4.5803328e-06
4.6723376e-06
4.5735376e-06
4.5150768e-06
4.5341552e-06
4.443312e-06
4.5767024e-06
4.6011664e-06
4.786624e-06
4.7095888e-06
4.7707104e-06
4.5810416e-06
4.6506368e-06
4.7404208e-06
4.6144704e-06
4.4295424e-06
4.536312e-06
4.7084144e-06
4.8077312e-06
4.5506752e-06
4.5288976e-06
4.5501584e-06
4.536312e-06
4.7536224e-06
4.6893616e-06
4.788704e-06
4.7780736e-06
4.9459648e-06
4.7966736e-06
4.8115536e-06
4.6749856e-06
4.7855008e-06
4.6409632e-06
4.614432e-06
4.8944656e-06
4.9019056e-06
4.840784e-06
4.6043184e-06
4.5246224e-06
4.4411808e-06
4.4157344e-06
4.4476384e-06
4.4226576e-06
4.3642096e-06
4.5778e-06
4.699992e-06
4.585744e-06
4.8487792e-06
4.8780096e-06
5.06928e-06
5.1372608e-06
4.888072e-06
4.9231408e-06
4.9034816e-06
4.580384e-06
4.6510768e-06
4.6388448e-06
4.7063728e-06
4.4789232e-06
4.93492e-06
4.9731152e-06
5.0262288e-06
5.019912e-06
5.2239568e-06
5.0751696e-06
4.60384e-06
4.5618352e-06
4.5963232e-06
4.7499024e-06
4.8153248e-06
4.6883664e-06
4.6697792e-06
4.5342704e-06
4.9689296e-06
4.9365216e-06
4.7234608e-06
4.84564e-06
4.6979248e-06
4.789336e-06
5.387056e-06
5.1542976e-06
5.1484592e-06
4.6213424e-06
4.3508672e-06
4.6394256e-06
4.8466608e-06
5.1017264e-06
5.1097344e-06
4.8520336e-06
5.0039728e-06
4.859384e-06
5.0076416e-06
4.9587776e-06
4.87748e-06
4.8115792e-06
4.9386016e-06
4.9901264e-06
5.1925568e-06
5.248344e-06
4.511912e-06
4.5262624e-06
4.9630912e-06
5.089016e-06
5.317512e-06
5.1410576e-06
4.943432e-06
4.9216288e-06
4.7324256e-06
4.8280352e-06
4.8312512e-06
4.8477328e-06
4.6909632e-06
4.9167728e-06
5.1298336e-06
5.2174992e-06
5.0836048e-06
4.7191088e-06
4.7228544e-06
4.5182672e-06
4.8025376e-06
4.8003936e-06
4.4098576e-06
4.4688224e-06
4.477296e-06
4.5804096e-06
4.538392e-06
4.6893232e-06
4.5591104e-06
4.580888e-06
4.6047968e-06
4.8476304e-06
4.8572272e-06
4.7855136e-06
4.431648e-06
4.689904e-06
4.7271296e-06
4.932272e-06
5.1298976e-06
5.125648e-06
4.941224e-06
4.6080512e-06
4.6834976e-06
4.5315072e-06
4.6249856e-06
4.4251904e-06
4.3688864e-06
4.4316224e-06
4.6899168e-06
4.766952e-06
4.7913392e-06
4.6122752e-06
4.7993216e-06
4.9199888e-06
4.7866112e-06
4.8402288e-06
4.8322464e-06
4.8407328e-06
4.7775184e-06
4.812096e-06
4.9167728e-06
5.1585728e-06
5.2063904e-06
5.1245504e-06
5.1091664e-06
5.1282704e-06
5.0778176e-06
4.8030416e-06
4.7025888e-06
4.9417408e-06
4.8816912e-06
4.6951744e-06
4.7913136e-06
4.722248e-06
4.949736e-06
4.7515808e-06
4.7797136e-06
4.662792e-06
4.7111264e-06
5.0543488e-06
5.0703904e-06
4.939712e-06
4.7457552e-06
4.8546816e-06
4.8998256e-06
4.9550576e-06
4.8174304e-06
4.7839632e-06
4.7159184e-06
4.6882896e-06
4.8360048e-06
4.8954992e-06
5.000744e-06
5.0974128e-06
4.9709328e-06
4.9023968e-06
4.874832e-06
5.0699248e-06
5.0481088e-06
5.0709328e-06
4.610712e-06
4.6946576e-06
4.7977712e-06
4.8264592e-06
4.9050704e-06
5.1441968e-06
4.9529136e-06
4.6367776e-06
4.4497568e-06
4.4885072e-06
4.622944e-06
4.833848e-06
4.9459392e-06
4.8742512e-06
4.917832e-06
4.9911472e-06
5.1069456e-06
5.1245504e-06
4.9120064e-06
4.6452896e-06
4.70264e-06
4.857304e-06
4.8987664e-06
5.1288128e-06
4.7499792e-06
4.7483136e-06
4.9762416e-06
5.2312816e-06
5.1531616e-06
5.2387216e-06
5.0666064e-06
4.7546944e-06
4.909888e-06
4.8019696e-06
4.6489456e-06
4.8333824e-06
4.8509232e-06
4.813168e-06
4.9406944e-06
4.9151968e-06
4.8620576e-06
4.7743664e-06
4.5357824e-06
4.468848e-06
4.4959216e-06
4.7238752e-06
4.8647312e-06
4.7717184e-06
4.6643936e-06
4.6053776e-06
4.714368e-06
4.6420864e-06
4.7154272e-06
4.7542416e-06
4.81424e-06
4.7977712e-06
4.6861712e-06
4.8444784e-06
4.8588416e-06
4.6802816e-06
4.3986848e-06
4.3843856e-06
4.4513456e-06
4.5857568e-06
4.6749984e-06
4.4182928e-06
4.4831344e-06
4.746712e-06
4.6845568e-06
4.6075344e-06
4.3838176e-06
4.5230336e-06
4.6909248e-06
4.52408e-06
4.7733072e-06
4.8131296e-06
4.8365344e-06
4.7095632e-06
4.5910016e-06
4.648416e-06
4.747344e-06
4.7760448e-06
4.6782656e-06
4.5368928e-06
4.5172848e-06
4.7628048e-06
4.7064496e-06
4.7063984e-06
4.5963744e-06
4.5219616e-06
4.5984928e-06
4.383792e-06
4.3816864e-06
4.4571328e-06
4.3615232e-06
4.4454688e-06
4.4763008e-06
4.6394384e-06
4.6149616e-06
4.7048224e-06
4.9289664e-06
4.7621472e-06
4.910392e-06
5.0783472e-06
5.2249776e-06
4.9024608e-06
4.9040624e-06
4.7956528e-06
4.820104e-06
4.9183616e-06
4.8710736e-06
4.952384e-06
4.9858384e-06
5.0044384e-06
4.6850864e-06
4.6005984e-06
4.723888e-06
4.775968e-06
4.6160336e-06
4.6415312e-06
4.9099136e-06
4.9274544e-06
4.8216928e-06
4.8828144e-06
4.9795088e-06
4.9625232e-06
4.9667472e-06
4.7786544e-06
4.6298928e-06
4.5284448e-06
4.50668e-06
4.6867648e-06
4.5198688e-06
4.5288976e-06
4.4210048e-06
4.7313664e-06
4.8875936e-06
4.9476304e-06
4.6793248e-06
4.8833568e-06
4.7000176e-06
4.8349584e-06
5.0682336e-06
4.7786416e-06
4.8546176e-06
4.9907072e-06
4.6702704e-06
4.9252976e-06
4.949736e-06
4.8566976e-06
4.5936368e-06
4.4427696e-06
4.4730848e-06
4.5448496e-06
4.5496672e-06
4.5772832e-06
4.4731488e-06
4.6878368e-06
4.7616816e-06
4.7313792e-06
4.7748576e-06
4.9077184e-06
4.9146288e-06
5.203704e-06
4.7398272e-06
4.6298288e-06
4.5559328e-06
4.5973824e-06
4.694064e-06
4.66008e-06
4.740848e-06
5.0054592e-06
5.0516624e-06
5.0692032e-06
4.826344e-06
4.8412112e-06
4.7402544e-06
4.7620192e-06
4.7413392e-06
4.7243664e-06
4.918336e-06
5.1064416e-06
5.0357744e-06
5.0830496e-06
4.9592048e-06
5.0611952e-06
4.9012864e-06
4.7907584e-06
4.6771296e-06
4.5819728e-06
4.6818704e-06
4.8518672e-06
4.9055744e-06
5.082016e-06
5.0453584e-06
5.1431504e-06
5.3248752e-06
5.3487712e-06
5.2935008e-06
5.0442608e-06
5.1234528e-06
5.1319008e-06
5.1579536e-06
5.1893024e-06
5.0288256e-06
4.9544512e-06
5.0208432e-06
5.0049296e-06
4.9273776e-06
5.1664912e-06
5.0150816e-06
4.9715136e-06
5.0889904e-06
4.9773904e-06
4.910392e-06
4.633032e-06
4.548544e-06
4.81796e-06
4.971488e-06
4.9565568e-06
4.773256e-06
4.7610368e-06
4.6882256e-06
4.87956e-06
4.6580384e-06
4.6554288e-06
4.73032e-06
4.8222096e-06
4.9173152e-06
4.7340016e-06
4.5751136e-06
4.4252416e-06
4.6149488e-06
4.822184e-06
5.0118912e-06
5.1351168e-06
5.2387344e-06
5.0511456e-06
4.8465968e-06
4.8232432e-06
4.7616304e-06
4.9120064e-06
4.9449824e-06
4.8057792e-06
4.9608832e-06
5.0187376e-06
5.0697584e-06
4.9932528e-06
4.8433936e-06
5.0033536e-06
4.9279072e-06
4.9767968e-06
5.0373888e-06
4.6341168e-06
4.649552e-06
4.5400832e-06
4.5703856e-06
4.7212784e-06
4.8424112e-06
4.8572656e-06
4.6946448e-06
4.7036608e-06
4.8194976e-06
4.8205696e-06
4.7116432e-06
4.8248192e-06
4.6739136e-06
4.7190832e-06
4.8349456e-06
4.7015808e-06
4.9136336e-06
5.0055744e-06
4.9843136e-06
4.8110624e-06
5.0453968e-06
5.1288512e-06
4.9768736e-06
4.977352e-06
5.0012864e-06
4.7664096e-06
4.92212e-06
4.8407712e-06
4.7366112e-06
5.0235808e-06
4.7647696e-06
4.7717312e-06
4.794568e-06
4.7270912e-06
4.5496288e-06
4.649488e-06
4.7249344e-06
4.9247808e-06
4.9507952e-06
4.9954224e-06
4.7945424e-06
4.8519184e-06
4.9072272e-06
4.8365728e-06
4.8658288e-06
4.7834592e-06
4.8598752e-06
4.9278816e-06
4.7206592e-06
4.6069792e-06
4.8238112e-06
4.6213424e-06
4.8960416e-06
4.9953456e-06
5.0623056e-06
5.0622928e-06
5.1027088e-06
4.8901776e-06
4.6989072e-06
4.6075472e-06
4.6681136e-06
4.8194848e-06
5.074008e-06
5.0341088e-06
4.859824e-06
4.8274416e-06
4.5835872e-06
4.9263312e-06
5.1548144e-06
5.0867824e-06
4.800368e-06
4.5930944e-06
4.9109088e-06
4.905096e-06
4.9832416e-06
4.9024864e-06
4.812664e-06
4.897152e-06
5.0560016e-06
4.9635312e-06
4.6936112e-06
4.7292224e-06
4.6792864e-06
4.7483904e-06
4.821176e-06
4.790848e-06
5.4656672e-06
5.3083808e-06
5.0692672e-06
5.0209328e-06
5.1664784e-06
5.1585472e-06
4.682968e-06
4.6643808e-06
4.7164096e-06
4.6977584e-06
4.6366496e-06
4.6674816e-06
4.5118736e-06
4.6802944e-06
4.9427488e-06
4.8705312e-06
4.8370256e-06
4.7722224e-06
4.806736e-06
5.1861376e-06
4.6947216e-06
4.5161616e-06
4.4109168e-06
4.6329808e-06
4.619224e-06
4.8318192e-06
4.8541008e-06
4.997088e-06
4.978488e-06
5.0178064e-06
4.9646288e-06
4.8822208e-06
4.6685536e-06
4.7514528e-06
4.7663584e-06
4.8114896e-06
4.8641504e-06
4.8147696e-06
4.813232e-06
4.7340272e-06
4.7281248e-06
4.923128e-06
5.080376e-06
5.0208944e-06
4.8444528e-06
4.6659696e-06
4.6515936e-06
4.6674944e-06
4.6063728e-06
4.5808624e-06
4.6196896e-06
4.604848e-06
4.837632e-06
4.9412112e-06
4.7419584e-06
4.738264e-06
4.733976e-06
4.6654272e-06
4.6255792e-06
4.528304e-06
4.5734992e-06
4.5761984e-06
4.9949824e-06
4.711216e-06
4.7324256e-06
4.62824e-06
4.7052496e-06
4.5649616e-06
4.6165504e-06
4.6527168e-06
4.8174048e-06
4.9858384e-06
4.9114512e-06
4.8508464e-06
4.9342624e-06
4.7956016e-06
4.8360432e-06
4.7180496e-06
4.585744e-06
4.665944e-06
4.686248e-06
4.686248e-06
4.7823872e-06
4.6989456e-06
4.619224e-06
4.7324128e-06
4.8068128e-06
4.8355136e-06
4.7440768e-06
4.7259808e-06
4.6122624e-06
4.5240544e-06
4.7270528e-06
4.8886272e-06
5.1607168e-06
5.0889776e-06
4.982144e-06
4.950808e-06
4.85888e-06
4.9689424e-06
4.6032848e-06
4.9008592e-06
4.7525632e-06
4.8561552e-06
4.8800896e-06
4.8864832e-06
4.9454736e-06
4.913608e-06
5.0262672e-06
4.967264e-06
4.9832416e-06
5.1086624e-06
5.0007952e-06
5.0231024e-06
4.818528e-06
4.922184e-06
4.7218336e-06
4.7255152e-06
4.8014528e-06
4.7127536e-06
4.8285904e-06
4.6819472e-06
4.5087472e-06
4.7133216e-06
4.7786928e-06
4.9019568e-06
4.79728e-06
4.8132064e-06
4.802072e-06
4.9710608e-06
5.0199248e-06
5.175584e-06
4.9481856e-06
4.8817424e-06
4.7956144e-06
4.786056e-06
4.7563216e-06
4.759008e-06
4.7260576e-06
5.0321056e-06
5.0166448e-06
4.9396096e-06
4.6070048e-06
4.5724528e-06
4.8551088e-06
4.7684896e-06
4.7594864e-06
4.7446064e-06
4.7398528e-06
4.6399424e-06
4.5586704e-06
4.5884304e-06
4.7383024e-06
4.7340528e-06
4.6644576e-06
4.6766384e-06
4.7042672e-06
4.6096784e-06
4.6638512e-06
4.8652096e-06
4.5596912e-06
4.4199072e-06
4.491104e-06
4.486376e-06
4.6064624e-06
4.5984928e-06
4.7483264e-06
4.8391952e-06
4.786056e-06
4.9496976e-06
4.9241872e-06
4.8652096e-06
4.9077056e-06
4.7918944e-06
5.0087136e-06
5.1719024e-06
5.2319264e-06
5.0204544e-06
4.823824e-06
4.5496032e-06
4.830192e-06
4.694128e-06
4.63196e-06
4.3933888e-06
4.5815072e-06
4.6633472e-06
4.6405104e-06
4.9523968e-06
5.0363808e-06
4.9736832e-06
5.1033536e-06
5.0055744e-06
4.936496e-06
5.0098112e-06
4.9986256e-06
4.9757632e-06
5.046392e-06
4.9635056e-06
4.8104816e-06
4.9268864e-06
5.1575264e-06
5.1314992e-06
4.7834464e-06
4.7775568e-06
4.8705312e-06
4.705288e-06
4.8631168e-06
4.9055872e-06
4.7419456e-06
5.0394816e-06
5.104336e-06
5.1692032e-06
4.9555744e-06
4.5740672e-06
4.4343216e-06
4.3886096e-06
4.6112416e-06
4.7802176e-06
4.986936e-06
5.2382816e-06
4.7020976e-06
4.8795856e-06
5.0124208e-06
5.0453712e-06
4.9592816e-06
5.1038576e-06
5.0900368e-06
5.0364064e-06
5.0236192e-06
4.9312e-06
4.8753872e-06
4.8812256e-06
4.87168e-06
5.1415744e-06
4.9215904e-06
5.0672256e-06
4.8339504e-06
4.6224784e-06
4.5071584e-06
4.4247504e-06
4.8487664e-06
4.6229056e-06
4.767392e-06
4.6903568e-06
4.8641376e-06
4.8752848e-06
4.9832032e-06
4.916256e-06
4.8992832e-06
4.909888e-06
4.8791072e-06
4.8562064e-06
4.6627536e-06
4.4109296e-06
4.6303968e-06
4.5256816e-06
4.7052752e-06
4.723888e-06
4.8280224e-06
4.9295344e-06
4.612792e-06
4.8333184e-06
4.8386016e-06
4.7848944e-06
4.7206464e-06
4.5219104e-06
4.4055824e-06
4.6085936e-06
4.8020336e-06
4.9741744e-06
4.9029392e-06
4.5968656e-06
4.583032e-06
4.7770144e-06
4.6622112e-06
4.589968e-06
4.526224e-06
4.5565008e-06
4.5931328e-06
4.4438544e-06
4.7934832e-06
4.8312384e-06
4.7297648e-06
4.5725168e-06
4.6856288e-06
4.857304e-06
4.9019568e-06
4.8519696e-06
4.7068896e-06
4.4879776e-06
4.6457936e-06
4.9146416e-06
4.7552112e-06
4.832272e-06
5.0336688e-06
4.7552368e-06
4.5235248e-06
4.5872816e-06
4.8768864e-06
4.9486384e-06
4.5363248e-06
4.4364144e-06
4.569792e-06
4.8088544e-06
4.8285136e-06
4.823192e-06
4.577168e-06
4.7551984e-06
4.6165376e-06
4.7568e-06
4.908248e-06
4.8014016e-06
4.7775056e-06
4.7854624e-06
4.74028e-06
4.5420864e-06
4.561216e-06
4.7642272e-06
4.78656e-06
4.7031824e-06
4.9937952e-06
4.955032e-06
4.9682976e-06
5.1643344e-06
5.1452048e-06
4.7679216e-06
4.8056512e-06
4.6058432e-06
4.5798416e-06
4.7307728e-06
4.6303456e-06
4.6920096e-06
4.6473184e-06
4.6292736e-06
4.7212272e-06
4.943304e-06
4.8439744e-06
4.8354752e-06
4.8349456e-06
4.8806448e-06
4.8587904e-06
4.905536e-06
4.6446576e-06
4.4868416e-06
4.5271808e-06
4.5835232e-06
4.6732944e-06
4.7609984e-06
4.6850352e-06
4.6776464e-06
4.8737856e-06
4.7213168e-06
4.862664e-06
4.9014656e-06
4.8430176e-06
4.8690576e-06
4.769096e-06
4.8493088e-06
4.9571376e-06
4.9592944e-06
5.057552e-06
4.8641632e-06
4.9476048e-06
5.0453968e-06
5.1538064e-06
5.1861632e-06
5.20692e-06
4.8732304e-06
5.1357488e-06
4.8923984e-06
4.655352e-06
4.5214704e-06
4.591608e-06
4.5554416e-06
4.8323104e-06
4.9635696e-06
4.7998896e-06
4.916256e-06
4.9454736e-06
5.1292784e-06
4.8254768e-06
4.9412624e-06
4.8753616e-06
4.8865216e-06
4.872184e-06
4.9380592e-06
4.5321264e-06
4.6756048e-06
4.5081792e-06
4.631456e-06
4.8025376e-06
4.891792e-06
4.7435728e-06
4.8014784e-06
4.7972416e-06
4.7292352e-06
4.8168752e-06
4.8195488e-06
4.6750496e-06
4.718656e-06
5.1012224e-06
4.9672896e-06
4.9034816e-06
5.0001888e-06
5.2058224e-06
4.9916384e-06
4.9863552e-06
4.9714752e-06
5.0512096e-06
5.0198992e-06
4.8419328e-06
4.8185664e-06
5.08e-06
4.9790304e-06
4.980064e-06
4.9067232e-06
4.9699632e-06
4.9534944e-06
4.9737088e-06
4.9508592e-06
4.8710992e-06
4.96512e-06
5.0018288e-06
5.0289536e-06
5.0820416e-06
5.1346768e-06
4.8509488e-06
4.727672e-06
4.8323488e-06
4.7776464e-06
4.5401216e-06
4.5098064e-06
4.7159952e-06
5.0289792e-06
5.1145264e-06
5.1777152e-06
4.8211632e-06
4.8392848e-06
4.939712e-06
4.72288e-06
4.6086192e-06
4.7175968e-06
4.7319728e-06
4.5996672e-06
4.6857312e-06
4.5007904e-06
4.5650768e-06
4.7063984e-06
4.6017216e-06
4.7892208e-06
4.8662944e-06
4.9933424e-06
4.7536992e-06
4.5713936e-06
4.419984e-06
4.2860768e-06
4.4619632e-06
4.3742464e-06
4.4008288e-06
4.574584e-06
4.57036e-06
4.6840784e-06
4.9301024e-06
4.9300896e-06
4.6287952e-06
4.9141632e-06
5.0390416e-06
5.0624464e-06
4.9944272e-06
4.8265232e-06
4.59432e-06
4.46784e-06
4.509832e-06
4.613424e-06
4.5660848e-06
4.7106224e-06
4.7069152e-06
4.805792e-06
4.752136e-06
4.7170544e-06
4.9954352e-06
4.8078976e-06
4.8822464e-06
4.9640864e-06
4.985864e-06
4.787128e-06
4.7085424e-06
4.727672e-06
4.7520848e-06
4.6888576e-06
4.6798032e-06
4.5809648e-06
4.8200528e-06
4.7361328e-06
4.7818064e-06
4.9513376e-06
4.9762928e-06
4.8376192e-06
4.9964688e-06
5.0102896e-06
4.9496976e-06
4.8922832e-06
4.76052e-06
4.9226112e-06
4.891792e-06
4.8476816e-06
4.7514912e-06
4.7732688e-06
4.6680624e-06
4.6516064e-06
4.5751136e-06
4.7653504e-06
4.7526016e-06
4.794568e-06
4.8524608e-06
4.813672e-06
4.7685024e-06
4.8444784e-06
4.9035072e-06
4.8880592e-06
4.4789104e-06
4.4560992e-06
4.5171952e-06
4.64848e-06
4.89028e-06
4.7803072e-06
4.62036e-06
4.580512e-06
4.7159952e-06
4.6394896e-06
4.7356672e-06
4.5055312e-06
4.4895792e-06
4.6760704e-06
4.778112e-06
4.8205696e-06
4.6984032e-06
4.4635008e-06
4.5028064e-06
4.5463744e-06
4.3748016e-06
4.5815328e-06
4.7632704e-06
4.6309904e-06
4.6256816e-06
4.6038016e-06
4.6085808e-06
4.7154016e-06
4.875904e-06
4.7286928e-06
4.8126512e-06
4.8057664e-06
4.981136e-06
4.8291584e-06
4.736688e-06
4.77124e-06
4.8748832e-06
4.7382896e-06
4.6048992e-06
4.5278384e-06
5.016128e-06
5.1208048e-06
4.989016e-06
4.8657264e-06
4.9316272e-06
4.9662176e-06
4.991224e-06
4.8105328e-06
4.9486512e-06
4.9396224e-06
4.8396864e-06
4.8116176e-06
4.9237728e-06
5.068336e-06
4.9291072e-06
5.0677296e-06
4.9439104e-06
5.0162048e-06
4.9662688e-06
4.8615664e-06
4.8003552e-06
4.8800768e-06
5.0750928e-06
5.0278048e-06
4.9815888e-06
4.7350352e-06
4.883784e-06
4.810456e-06
4.8365216e-06
4.5889216e-06
4.6702832e-06
4.7600416e-06
4.6643808e-06
4.7914032e-06
4.6155168e-06
4.7355904e-06
4.8423856e-06
5.029432e-06
4.9646288e-06
5.0639584e-06
4.8636336e-06
4.8487152e-06
4.876344e-06
5.0038704e-06
4.9863296e-06
4.9018288e-06
4.9007696e-06
5.171232e-06
4.8678448e-06
5.1584832e-06
4.91512e-06
5.0251568e-06
4.8253616e-06
4.5942176e-06
4.674456e-06
4.6042928e-06
4.6314304e-06
4.5140176e-06
4.4975488e-06
4.7632448e-06
4.7961312e-06
4.7860048e-06
4.6935856e-06
4.6675712e-06
4.7839248e-06
4.9300512e-06
4.7568e-06
4.7339248e-06
4.7339376e-06
4.6850736e-06
4.6276976e-06
4.866256e-06
4.8428768e-06
4.8396608e-06
4.8588288e-06
4.68032e-06
4.6187072e-06
4.578808e-06
4.3338432e-06
4.5166016e-06
4.7376832e-06
4.658504e-06
4.6372432e-06
4.719096e-06
4.6489456e-06
4.8104688e-06
4.7472288e-06
5.023568e-06
4.9023968e-06
4.8773776e-06
5.1100848e-06
5.1595424e-06
4.934856e-06
4.7696512e-06
4.6973568e-06
4.867392e-06
5.0964048e-06
5.309504e-06
5.0257248e-06
4.7573424e-06
4.8301664e-06
5.0304656e-06
5.0294192e-06
4.9236704e-06
5.1011456e-06
5.0336304e-06
5.1675888e-06
4.9810848e-06
5.1505904e-06
5.1330368e-06
5.1904384e-06
4.9183744e-06
5.1611568e-06
4.9629248e-06
4.8774288e-06
4.6925008e-06
4.6765232e-06
4.7833184e-06
4.8285136e-06
4.747216e-06
4.77704e-06
4.5958064e-06
4.5389216e-06
4.3869824e-06
4.546464e-06
4.4630608e-06
4.5645728e-06
4.5114208e-06
4.8445424e-06
4.676096e-06
4.8413392e-06
4.7281376e-06
4.7807472e-06
4.7419328e-06
4.818968e-06
4.7051984e-06
4.7812512e-06
4.7802048e-06
4.8466352e-06
4.6834976e-06
4.7265232e-06
4.5973824e-06
4.478368e-06
4.4427568e-06
4.3120528e-06
4.4294912e-06
4.3396944e-06
4.3747248e-06
4.2785728e-06
4.6690832e-06
4.7361072e-06
4.7940256e-06
4.5979248e-06
4.5633984e-06
4.497536e-06
4.5411296e-06
4.4651536e-06
4.692552e-06
4.8891696e-06
4.8657776e-06
4.810016e-06
4.7871536e-06
4.6006624e-06
4.5761984e-06
4.3886608e-06
4.2728368e-06
4.4279792e-06
4.5007392e-06
4.8748064e-06
4.945952e-06
4.8450208e-06
5.1208048e-06
5.260576e-06
5.1893408e-06
4.9863296e-06
4.987944e-06
4.8083632e-06
4.8004064e-06
4.6765872e-06
5.0002272e-06
4.768464e-06
4.7009872e-06
4.8566976e-06
4.9109216e-06
5.0171872e-06
4.983152e-06
4.903456e-06
4.9300384e-06
4.869976e-06
4.8461184e-06
4.5980016e-06
4.6952256e-06
4.5788464e-06
4.5718592e-06
4.5745072e-06
4.5606864e-06
4.581896e-06
4.864616e-06
4.80724e-06
4.780128e-06
4.4784192e-06
4.6234608e-06
4.579376e-06
4.552264e-06
5.0294448e-06
4.956104e-06
5.1123056e-06
4.865248e-06
4.5782656e-06
4.5320368e-06
4.6314176e-06
5.003328e-06
4.79028e-06
4.5761984e-06
4.547472e-06
4.6983904e-06
4.9326992e-06
4.774896e-06
4.552768e-06
4.566072e-06
4.6128304e-06
4.8593712e-06
4.8992192e-06
4.9661792e-06
4.8976176e-06
4.612288e-06
4.6340272e-06
4.5622624e-06
4.5660592e-06
4.502832e-06
4.6016704e-06
4.4215472e-06
4.6043312e-06
4.83284e-06
4.9359664e-06
4.831264e-06
4.7669648e-06
4.6803712e-06
4.797784e-06
4.59104e-06
4.6272192e-06
4.6920608e-06
4.7616432e-06
4.7536224e-06
4.7376704e-06
4.7111136e-06
4.6170928e-06
4.5240928e-06
4.5097424e-06
4.4082304e-06
4.418344e-06
4.5272576e-06
4.4938288e-06
4.365256e-06
4.564496e-06
4.2605792e-06
4.4093664e-06
4.4566544e-06
4.4210432e-06
4.7345696e-06
4.367904e-06
4.4215728e-06
4.2828992e-06
4.2988128e-06
4.3386736e-06
4.4661616e-06
4.5044208e-06
4.4852784e-06
4.5208768e-06
4.5772448e-06
4.6994624e-06
4.330136e-06
4.4619504e-06
4.5532976e-06
4.4502352e-06
4.5134368e-06
4.5825152e-06
4.4778512e-06
4.6282144e-06
4.6946704e-06
4.9274032e-06
4.8476944e-06
5.1394304e-06
5.0926848e-06
4.7552368e-06
4.4981168e-06
4.6161232e-06
4.7478864e-06
4.8849328e-06
4.872688e-06
5.0177168e-06
5.1405024e-06
5.1282704e-06
4.861528e-06
4.715944e-06
4.6261728e-06
4.8285904e-06
4.6899296e-06
4.7302944e-06
4.7095632e-06
4.7181392e-06
4.8440384e-06
4.8116176e-06
4.8296624e-06
4.7504832e-06
4.8896992e-06
4.9471008e-06
4.8779712e-06
4.830696e-06
4.9348688e-06
4.77124e-06
4.7276208e-06
4.7408992e-06
4.91468e-06
4.9683232e-06
4.8870384e-06
4.8785264e-06
5.015624e-06
5.0268096e-06
4.8700656e-06
4.82168e-06
4.7685536e-06
4.7595376e-06
4.6012176e-06
4.7749216e-06
4.8174048e-06
4.8588416e-06
4.80308e-06
4.8753232e-06
4.8647056e-06
4.9757248e-06
4.9837456e-06
5.1064544e-06
4.9332544e-06
4.8737472e-06
4.813168e-06
4.8711248e-06
4.773888e-06
4.7898272e-06
4.8105456e-06
5.1899728e-06
5.1506544e-06
5.218144e-06
5.1224832e-06
5.1134672e-06
4.9598624e-06
5.0703392e-06
4.7345056e-06
4.9884736e-06
4.8094224e-06
4.890152e-06
4.7987664e-06
5.053328e-06
4.8667984e-06
4.9119936e-06
5.0602896e-06
5.0486256e-06
4.9758016e-06
5.0719408e-06
5.0156368e-06
4.8238368e-06
4.8769888e-06
4.696272e-06
4.9831904e-06
5.1718384e-06
5.1904512e-06
5.0502016e-06
5.0273648e-06
5.0991168e-06
4.8913648e-06
5.1256864e-06
5.0336944e-06
4.9300512e-06
4.928992e-06
4.8742512e-06
5.0012736e-06
4.830696e-06
4.844e-06
4.8052368e-06
4.7813152e-06
4.69684e-06
4.577296e-06
4.6267152e-06
4.6442688e-06
4.5942816e-06
4.5602848e-06
4.6862096e-06
4.8445552e-06
4.9895712e-06
5.131448e-06
4.91304e-06
4.8524608e-06
4.7987792e-06
4.8162688e-06
4.856672e-06
5.036808e-06
4.9198864e-06
5.0968448e-06
5.0804016e-06
4.9034944e-06
4.7542288e-06
4.9550832e-06
4.755792e-06
4.786624e-06
4.6394128e-06
4.607496e-06
4.911968e-06
4.9624208e-06
5.1962128e-06
5.3742432e-06
5.13832e-06
5.1819136e-06
4.80888e-06
5.0294064e-06
5.1893024e-06
5.1718e-06
5.0261904e-06
4.9390544e-06
5.1245248e-06
4.9236704e-06
5.230184e-06
5.0649536e-06
5.0771984e-06
5.2047376e-06
5.0692544e-06
5.0910448e-06
5.0676656e-06
5.20528e-06
5.1606784e-06
4.9651328e-06
4.7823488e-06
4.7993344e-06
4.8566848e-06
4.9108576e-06
4.9937696e-06
4.9300128e-06
5.1510432e-06
5.0804144e-06
5.0065568e-06
5.2616096e-06
4.5044976e-06
4.6453536e-06
4.8158928e-06
4.7892976e-06
4.786056e-06
4.9417408e-06
4.9986e-06
4.7589312e-06
4.8943888e-06
4.8237472e-06
4.5209024e-06
4.9050704e-06
4.9609088e-06
5.065624e-06
4.9359664e-06
5.12672e-06
5.0395712e-06
4.9332416e-06
4.9050576e-06
4.6144192e-06
4.6112416e-06
4.4757968e-06
4.6617712e-06
4.8509104e-06
5.1409808e-06
4.9693824e-06
4.8667984e-06
4.7222992e-06
4.4954304e-06
4.3928976e-06
4.7164608e-06
4.6229696e-06
4.7186304e-06
4.5581152e-06
4.6096272e-06
4.5772064e-06
4.4895792e-06
4.4316736e-06
4.4088112e-06
4.4842832e-06
4.8960288e-06
4.913544e-06
4.80516e-06
4.5310032e-06
4.4491632e-06
4.5985312e-06
4.6357696e-06
4.6968656e-06
4.7383152e-06
4.6043696e-06
4.80308e-06
4.6596016e-06
4.6526784e-06
4.6011408e-06
4.5331344e-06
4.6245072e-06
4.7419328e-06
5.0676656e-06
5.2026576e-06
5.0076032e-06
4.670232e-06
4.71008e-06
4.7573808e-06
4.64684e-06
4.6330448e-06
4.5639664e-06
4.4805888e-06
4.4370336e-06
4.5799568e-06
4.789336e-06
4.6570176e-06
4.6256176e-06
4.6160464e-06
4.7525888e-06
4.5337024e-06
4.6277104e-06
4.7775952e-06
4.715944e-06
4.705288e-06
4.7568512e-06
5.114424e-06
4.9597856e-06
4.9555232e-06
5.1282704e-06
4.8184768e-06
5.0363296e-06
4.9667472e-06
5.025712e-06
5.097968e-06
4.9481344e-06
4.7839376e-06
4.7504704e-06
4.835488e-06
4.7233712e-06
4.8610112e-06
4.8493216e-06
4.6883024e-06
4.6585424e-06
4.8743024e-06
4.9661792e-06
4.846648e-06
5.0565568e-06
4.848224e-06
4.6813664e-06
4.5193008e-06
4.5856928e-06
4.769536e-06
4.6835232e-06
4.6187072e-06
4.482152e-06
4.5304992e-06
4.409896e-06
4.4210304e-06
4.3742464e-06
4.1877168e-06
4.2280816e-06
4.4470576e-06
4.5400704e-06
4.7393232e-06
4.7823616e-06
4.4672464e-06
4.3683952e-06
4.4348256e-06
4.3535408e-06
4.6245968e-06
4.3727344e-06
4.3865424e-06
4.3200992e-06
4.3594304e-06
4.4046256e-06
4.527864e-06
4.6000944e-06
4.8195872e-06
4.7111776e-06
4.590536e-06
4.670296e-06
4.8456144e-06
4.628808e-06
4.7382512e-06
4.5309776e-06
4.9646288e-06
4.9014272e-06
4.77124e-06
4.664432e-06
4.766448e-06
4.7372432e-06
4.8700272e-06
4.7265616e-06
4.608064e-06
4.6282656e-06
4.6967888e-06
4.9284752e-06
4.878488e-06
4.7955504e-06
5.1430864e-06
5.1298208e-06
5.1765664e-06
5.1558352e-06
5.158496e-06
5.0942992e-06
4.575088e-06
4.5347104e-06
4.5708384e-06
4.8168624e-06
4.8880976e-06
4.86632e-06
4.764808e-06
4.6425776e-06
4.7403568e-06
4.6213296e-06
4.848792e-06
4.9518928e-06
4.9348432e-06
4.922624e-06
4.9343136e-06
5.0272752e-06
4.783976e-06
4.6011536e-06
4.679816e-06
4.5214576e-06
5.1436928e-06
5.2621776e-06
5.2632624e-06
5.0858128e-06
5.0942992e-06
4.8753488e-06
4.9757888e-06
4.846144e-06
4.6867392e-06
4.7260832e-06
4.7392976e-06
4.5915824e-06
4.2249808e-06
4.260592e-06
4.2994064e-06
4.2675152e-06
4.346152e-06
4.417336e-06
4.6543312e-06
4.9093712e-06
4.949168e-06
4.9157008e-06
4.7339888e-06
4.6777104e-06
4.6910272e-06
4.9997616e-06
4.9237472e-06
5.0693568e-06
4.8748448e-06
4.7839504e-06
4.8083888e-06
4.7643168e-06
4.9013632e-06
4.7892336e-06
4.784984e-06
4.974704e-06
4.9996592e-06
4.8928768e-06
5.0915872e-06
5.0267456e-06
4.9422448e-06
4.9868976e-06
5.1213728e-06
5.10068e-06
4.8376064e-06
4.5007264e-06
4.50712e-06
4.6298544e-06
4.7600416e-06
4.8482112e-06
4.8099648e-06
4.781264e-06
4.822184e-06
4.84236e-06
4.9709584e-06
5.0325584e-06
4.949104e-06
5.0245888e-06
4.8519312e-06
5.0049296e-06
4.7461568e-06
5.1138816e-06
4.8753104e-06
5.1058864e-06
5.023e-06
4.9395712e-06
4.77004e-06
4.5734224e-06
4.6833952e-06
4.6892592e-06
4.6542032e-06
4.5772064e-06
4.454472e-06
4.5022768e-06
4.5883536e-06
4.7605712e-06
4.9391056e-06
5.1941584e-06
4.8524608e-06
4.8327888e-06
4.7615664e-06
4.8550704e-06
4.7052624e-06
4.6627408e-06
4.6590336e-06
4.7700784e-06
4.7775184e-06
4.6834848e-06
4.4550528e-06
4.5326176e-06
4.5920864e-06
4.5559456e-06
4.96556e-06
5.0542976e-06
5.0761136e-06
5.1037936e-06
4.8062064e-06
4.7094992e-06
4.6069792e-06
4.710584e-06
4.782336e-06
4.6346336e-06
4.7961312e-06
4.912536e-06
5.1048784e-06
4.9614256e-06
4.5644832e-06
4.6048864e-06
4.4374736e-06
4.3029856e-06
4.3311568e-06
4.6563728e-06
4.9725856e-06
5.0262416e-06
4.9364192e-06
4.8083248e-06
4.8827248e-06
4.8174048e-06
4.6208e-06
4.7547072e-06
4.852512e-06
5.048032e-06
5.0134544e-06
4.76588e-06
4.6521616e-06
4.5937392e-06
4.802576e-06
4.456112e-06
4.7648336e-06
4.9986768e-06
5.303136e-06
5.097464e-06
4.8551216e-06
5.04532e-06
4.863608e-06
4.897088e-06
4.8137104e-06
4.8169008e-06
4.724456e-06
4.8445424e-06
4.7196896e-06
4.7032208e-06
4.7664224e-06
4.7929152e-06
4.9800128e-06
5.0283088e-06
4.9555104e-06
4.840784e-06
4.659072e-06
4.764808e-06
4.7456784e-06
4.6952128e-06
4.7515424e-06
4.5778256e-06
4.5316352e-06
4.5183696e-06
4.6713552e-06
4.7606096e-06
4.7457168e-06
4.7420352e-06
5.114992e-06
4.8795856e-06
4.8557024e-06
4.62988e-06
4.7010384e-06
4.6032848e-06
4.7047584e-06
4.8232304e-06
4.917264e-06
4.8918048e-06
5.004968e-06
4.9120192e-06
4.9019312e-06
4.9975792e-06
4.9635568e-06
4.9545664e-06
4.9035328e-06
4.8727392e-06
4.9168752e-06
4.9348816e-06
4.7026784e-06
4.6894e-06
4.595832e-06
4.7695616e-06
4.7796496e-06
4.8492576e-06
4.812536e-06
4.9847408e-06
4.9491424e-06
4.9363936e-06
4.9045536e-06
4.9316656e-06
4.938072e-06
5.0942864e-06
5.1144496e-06
5.143112e-06
5.0772368e-06
4.9172896e-06
4.8338736e-06
4.6208128e-06
4.9800896e-06
4.891352e-06
5.010328e-06
4.909384e-06
4.7712144e-06
4.931704e-06
4.880192e-06
4.862096e-06
4.8886144e-06
4.8216416e-06
4.821112e-06
4.6287824e-06
4.6288336e-06
4.878552e-06
4.8678832e-06
4.8296112e-06
4.9411984e-06
4.9566336e-06
5.0416896e-06
4.9343904e-06
4.8546688e-06
4.7127664e-06
4.5884304e-06
4.5527808e-06
4.6425776e-06
4.512352e-06
4.6015936e-06
4.7339376e-06
4.7695616e-06
4.8715776e-06
4.97092e-06
4.9114256e-06
5.0294064e-06
5.0113872e-06
5.0220176e-06
5.0793808e-06
5.047528e-06
5.0581584e-06
5.0315504e-06
5.0655984e-06
4.7015808e-06
4.64684e-06
4.5315456e-06
4.7903184e-06
4.7148592e-06
4.7361072e-06
4.6638896e-06
4.6506112e-06
4.816888e-06
4.68032e-06
4.756864e-06
4.6819088e-06
4.884288e-06
4.7886784e-06
4.8854368e-06
4.954528e-06
4.969344e-06
4.9188784e-06
4.800368e-06
4.7972032e-06
4.7180368e-06
4.9077184e-06
4.7201808e-06
4.7345824e-06
4.5241568e-06
4.4694416e-06
4.4922656e-06
4.3338944e-06
4.3710816e-06
4.4773088e-06
4.4783808e-06
4.6664992e-06
4.9374912e-06
4.922624e-06
5.0506928e-06
4.9842112e-06
4.711088e-06
4.5415952e-06
4.6749728e-06
4.6165376e-06
4.817328e-06
4.7094736e-06
4.694064e-06
4.8763184e-06
5.070792e-06
4.9974896e-06
4.9884352e-06
5.0617888e-06
4.893368e-06
4.955032e-06
5.1038704e-06
4.8737984e-06
4.9178576e-06
4.7749216e-06
4.9194336e-06
4.7690576e-06
4.7664096e-06
4.8068e-06
4.6181392e-06
4.8875168e-06
4.6133088e-06
4.5256048e-06
4.8008592e-06
4.8561424e-06
4.6080256e-06
4.662224e-06
4.893368e-06
5.196264e-06
5.0782448e-06
5.220664e-06
4.9565952e-06
4.5463872e-06
4.4826688e-06
4.6840272e-06
5.0262032e-06
5.0405664e-06
4.9608704e-06
5.0213984e-06
4.816824e-06
4.6935216e-06
5.0624208e-06
4.9354368e-06
4.8934448e-06
4.9943632e-06
4.8652608e-06
4.9354112e-06
4.9396224e-06
4.9438848e-06
4.8647312e-06
4.6362608e-06
4.7701552e-06
4.9709712e-06
4.9629888e-06
4.919408e-06
4.9029392e-06
5.015624e-06
4.882776e-06
4.901376e-06
5.08044e-06
5.1341344e-06
4.4295552e-06
4.5629328e-06
4.5777872e-06
4.79192e-06
4.796208e-06
4.8397888e-06
4.4815968e-06
4.5155808e-06
4.517712e-06
4.6085936e-06
4.5474976e-06
4.6203088e-06
4.83656e-06
4.9008592e-06
4.9093712e-06
4.8259168e-06
4.729752e-06
4.6702448e-06
4.534736e-06
4.4715216e-06
4.6468272e-06
4.4321264e-06
4.3811184e-06
4.3752672e-06
4.6919712e-06
4.6170416e-06
4.8577824e-06
4.7536608e-06
4.7892592e-06
4.9024736e-06
4.914176e-06
5.1952688e-06
4.8945168e-06
4.7712144e-06
4.6229312e-06
4.5968784e-06
4.7504832e-06
4.8636592e-06
4.860456e-06
4.6282528e-06
4.8141888e-06
4.8274416e-06
4.7073552e-06
4.6329936e-06
4.6149744e-06
4.6436624e-06
4.7323872e-06
4.6314304e-06
4.6059328e-06
4.6824128e-06
4.7068896e-06
4.756296e-06
4.8471776e-06
4.8062832e-06
4.7914288e-06
4.6516192e-06
4.7116432e-06
4.8588288e-06