/*--------------------------------*- C++ -*----------------------------------*\
| =========                 |                                                 |
| \\      /  F ield         | OpenFOAM: The Open Source CFD Toolbox           |
|  \\    /   O peration     | Version:  2.4.0-MNF                             |
|   \\  /    A nd           | Web:      www.OpenFOAM.org                      |
|    \\/     M anipulation  |                                                 |
\*---------------------------------------------------------------------------*/
FoamFile
{
    version     2.0;
    format      ascii;
    class       volScalarField;
    location    "0.0006";
    object      rotationalT_O2;
}
// * * * * * * * * * * * * * * * * * * * * * * * * * * * * * * * * * * * * * //

dimensions      [0 0 0 1 0 0 0];

internalField   nonuniform List<scalar> 
5120
(
285.6956193
273.597973
316.6666172
332.0691474
335.7224547
336.9420867
333.7533026
292.8403272
290.5627836
310.7382061
283.985063
285.1241184
271.9397258
287.8147785
296.9771735
299.0017188
323.1370636
287.179391
282.4260428
285.7525095
319.2665832
296.5759018
291.8745931
313.5328522
322.2735774
310.1941319
318.6880652
290.0312027
302.454307
294.1913833
297.5298579
306.2208589
298.5359297
297.9711533
304.62888
281.0815167
266.9813164
286.2920814
310.8939709
302.8080028
320.7992595
324.9421773
328.4935883
379.6183661
390.1403732
380.2607947
317.3515539
310.354474
311.3046905
313.6734267
294.1570932
297.4364056
306.2623971
285.0808012
260.7613229
270.6684116
250.8328476
229.5424681
250.8983389
264.2264252
302.9888412
323.0356087
317.5896469
280.8792084
247.2025304
257.3393088
298.8868398
322.6991762
288.3779775
312.6009363
303.9196332
254.5051241
260.1135441
272.0877008
274.2818051
283.6582286
294.9654435
260.1933118
250.6807667
280.6095965
323.4726706
308.2120877
319.7269565
294.4034061
312.137156
334.9469199
333.712801
325.9725932
330.6632948
269.6660688
278.068947
292.9972366
291.9439077
310.6371704
285.039083
299.470721
287.0567053
293.8726835
306.9386443
320.8374846
308.0802717
354.1801279
324.7195799
300.9778751
303.3106558
311.5903685
298.5721229
295.3965026
299.7938073
362.2282343
362.4689508
334.0531281
339.2411006
349.6362572
322.117558
322.1940759
314.3048789
350.6456223
320.5982689
298.7769199
304.0000711
302.0025818
310.3073767
296.3790735
299.8623082
293.328372
287.5702052
292.5281199
295.3014035
293.3525018
268.2098954
274.1822931
306.2327178
307.9835174
301.5182506
286.3171889
279.4105856
318.8018975
315.1804874
317.5976978
312.1988556
310.3318083
332.5159583
307.0493088
311.2801873
303.6124832
273.577947
244.9571126
249.2910945
276.2401767
290.0536786
293.859501
286.2878714
297.6897297
316.3758513
284.1937417
283.7044562
278.1112601
290.2766086
311.2581091
307.3607566
312.2813873
298.9897708
298.1289352
283.0757815
302.125228
302.4308522
258.1939769
266.3287705
271.3581661
270.189908
252.692042
254.5324711
236.6711723
270.7193355
323.6945406
387.5471274
348.9417753
337.9656777
330.7257468
294.4887294
270.4950803
278.6155552
292.3731028
287.5826757
296.2307597
278.4496644
270.1439756
271.5348304
262.2483048
261.8583891
281.1559517
283.7151545
294.5738805
296.3451322
285.0278241
260.3330281
256.8321739
273.3827131
267.5691807
335.9984305
336.2374953
338.8347114
340.5472097
341.0199965
308.9956743
314.2463663
324.3864612
329.9115093
285.8063009
300.2418251
317.9806142
333.5129157
324.4939349
333.5922632
336.360715
327.4240205
328.0926744
310.3360633
326.2272622
295.2654083
269.4468727
284.3575406
260.1632886
241.2644064
254.514561
271.235154
292.4299548
311.8867675
343.435467
346.7660618
340.7865268
337.3818879
335.2706713
337.245068
321.6879723
312.270626
342.737801
350.0439326
332.2126284
284.5424786
276.5592763
280.8060609
313.0978123
321.2977867
311.9342764
312.3309209
327.9231738
324.6644381
340.8974133
308.722094
295.3686538
259.7570718
286.6429102
280.1583094
259.1956192
268.3129103
268.2582538
293.5519834
289.7846359
327.0587355
332.4352864
323.3023986
300.4735175
310.8176429
316.2801122
301.7890623
304.226457
291.5742067
335.8546195
328.8623069
391.7988338
364.4049713
355.4143629
345.0894411
318.2057886
310.8091535
302.7690723
341.1434319
311.7893739
331.3558222
312.7935103
309.7560429
302.1771368
319.9426031
308.5401456
368.1138457
382.8637591
389.7648319
351.9328242
341.3057819
315.2723193
320.8837238
318.2077008
360.7196921
369.2209865
359.5492726
347.355461
360.3227378
337.3153502
323.598797
303.7094525
296.9157977
312.7968992
324.5923451
337.8202725
346.1039731
323.2307981
319.2147121
290.2420191
308.4386777
306.6810037
316.4830625
309.3549034
306.2616657
313.5513625
319.0514309
320.878475
334.9283573
346.611597
305.1322759
320.1915774
315.1977285
315.9783704
337.2011136
314.7019673
303.5668423
271.9143018
277.4711711
274.5968949
255.8912964
273.8676298
260.640595
251.7974111
268.3221478
289.3737861
267.3944913
268.7943171
277.0035045
296.8528361
255.1827748
274.7493565
282.4875212
295.4809449
274.8981849
256.7663145
288.347596
311.3906062
322.1417352
313.5676309
295.940358
292.5774628
306.8764801
296.296824
282.4807526
290.9486308
297.2881582
329.1841823
282.106309
268.483803
294.5651714
305.1853223
310.5390171
305.7944475
287.8189233
279.8450574
279.7245783
292.5098019
259.7464841
261.9679476
284.1931056
271.5368472
269.4653862
247.1163548
252.1148559
268.9941485
279.7468474
282.4242045
295.2090873
291.4809335
264.6987046
238.0495136
265.8560292
282.1522824
313.5554523
316.9116471
320.8655117
319.8224426
301.5349214
296.1423181
306.7602833
271.8646037
259.0322534
286.8585686
302.4205296
315.6956918
306.0552246
260.617411
273.0931577
271.2234063
301.2907065
310.9153283
311.7045246
313.2540792
308.6424333
297.3168107
282.3222838
283.5484087
275.3605628
280.3561764
301.9692309
292.150911
270.6284066
283.9902872
294.409965
294.9768109
297.675629
310.2938817
301.356182
296.0040101
262.8781846
267.2167641
294.2153129
323.0107537
301.73274
294.263668
297.6732012
298.1640892
295.2369032
283.6005539
276.0999806
265.9940418
273.817216
277.5471429
283.0877986
300.4846724
298.9458981
291.7153545
285.0656214
264.1608478
269.4862164
267.0057804
256.119341
269.6788173
285.6404067
272.4443028
293.6749257
304.4429483
318.0244026
319.9288017
338.6260716
301.218654
295.8528351
295.9805466
271.3304328
269.5470946
273.3196853
274.1796092
263.8326378
256.7183859
335.3754462
340.5608767
340.4796995
301.1087346
281.3822382
283.2568126
305.2892002
309.9318495
299.3543766
282.6269532
283.6033337
297.9069359
301.3854563
298.7788011
292.9589605
284.8623489
273.9989408
277.8375085
294.7553389
334.4108038
273.7367778
279.009228
259.7243752
281.7846669
282.196095
270.2465502
297.6123071
293.8443683
288.3385158
326.737365
296.9250759
315.6064996
314.5834129
319.2088839
308.5665634
318.1975191
311.7077972
303.8168968
295.9525178
277.7728879
270.1297119
304.5130199
312.5827093
312.8986273
300.8079333
320.6720319
313.0213684
286.9983737
285.7519629
283.5956508
269.6700947
282.6383659
272.2920374
283.9381993
297.394611
287.7461391
299.1955471
283.9832876
281.2115469
244.995086
343.8133464
312.7241518
298.7648492
295.0843828
330.4186451
335.9282971
335.7271301
346.2978146
368.7097181
369.6569349
332.6544839
286.8229687
280.8401506
280.5979895
298.447948
307.1053812
283.0088135
333.3832926
339.1892023
339.3094942
326.6908218
345.1482648
322.7620049
317.3086678
335.5584581
295.9491852
286.8529155
283.3653547
286.9188538
268.9731264
289.0548522
301.4521794
262.8585205
297.0588349
321.3210693
348.7962141
323.5445503
301.7509286
300.9415554
307.5440351
277.980633
265.468853
265.8512532
249.864236
275.4908659
290.1754292
302.8554747
284.218339
291.1136541
317.1007358
310.5802524
322.9419244
322.9791413
330.0178396
319.6590937
344.1236852
351.6708036
349.2666535
318.7271582
301.8863508
282.7921273
265.2688852
281.6031319
319.2191811
319.1202983
312.4731004
340.2942513
312.6584901
300.417846
301.661085
299.5204472
301.5328544
311.9678096
317.2506343
323.6381417
345.0699016
345.9130337
319.5193902
293.3616512
297.196841
319.5076366
332.616061
320.1295064
355.7362743
340.0055198
300.1073299
290.9392257
319.5385188
330.1139251
329.3976175
341.5395759
325.8518963
334.9868764
337.2100738
325.486785
321.4440868
339.0693178
354.1450271
349.3458482
344.8632504
361.7826663
349.3522165
332.6271013
325.6745889
306.6490089
314.9828169
319.0016006
296.4628206
277.6098937
277.1237107
299.7374039
305.1895045
294.7569194
303.5546546
311.5764273
314.735479
299.6370717
302.6242229
314.5190991
320.9866157
326.877479
315.7874299
303.3752933
273.4946773
264.2647584
264.8764504
273.6716957
301.9091803
290.0427416
302.2989144
295.6418714
274.5130182
265.8292249
250.9959345
267.8257683
280.8357483
280.3281286
291.1011691
286.2942067
310.7223522
297.5759028
301.7699735
274.5966501
266.7640379
279.311523
296.6711556
277.6810768
262.2213343
287.1881698
274.6274578
290.4137825
301.1455995
322.0142578
325.4161202
285.4113671
291.383213
299.9345469
317.8947646
311.592456
323.5582079
277.8543958
277.0478453
273.4894952
263.2943053
274.3634012
280.4369686
302.3054787
337.8199653
315.1370043
323.6906991
330.3270025
322.6397122
308.0938246
272.9082072
282.2603651
295.4775835
273.6176343
282.087408
280.0429488
281.0369954
289.9813563
277.8158498
274.2060834
292.2807007
279.5793339
269.347527
278.6397488
284.002038
269.5697918
278.813507
288.4240939
314.071994
301.2589717
332.171003
333.2601108
292.1241286
277.6968892
293.8382037
286.0595429
283.7136408
301.3957537
290.2252746
295.1736904
299.5336753
290.4499129
326.3897995
293.4461278
316.5924084
327.7494273
297.3202766
279.8381836
293.792002
311.8991817
287.0426729
313.6991445
315.6929998
319.9569617
306.81106
273.9252119
273.6159178
297.9633083
278.7419426
281.0502761
293.6099497
312.0116201
286.8316865
262.3568079
255.3151435
287.0236394
274.3759642
298.2372768
320.7100674
310.3730948
320.0657305
284.5856905
274.6301687
244.2535372
257.0500971
291.0215122
318.0173029
315.5426682
289.2448111
300.6649935
271.6948411
291.8302297
279.9094414
283.018135
306.6973058
289.5416539
297.9614425
279.0518967
254.0622919
257.0418082
280.8443672
267.3995663
293.6498646
293.5529991
323.1279587
307.52696
319.1911141
280.5219948
320.1977533
339.6050447
372.1312112
380.088025
362.176403
335.8404453
291.6599255
291.777967
282.7250505
273.6544008
273.3266789
273.2939899
266.0358031
281.2801183
310.6533865
313.4330239
322.8766454
300.0398029
283.2061616
266.1540169
264.4758378
242.3769134
237.0053635
232.6201791
248.9491607
279.2369954
318.69287
341.400856
314.3701357
345.9119931
330.1205328
306.80173
270.930268
292.722887
286.9805166
272.7891526
271.9629151
284.0624411
299.1009482
284.3757248
246.936247
243.9797232
248.6232251
254.6887647
261.4659701
252.8240336
229.2922915
241.9324177
237.6705343
245.4842157
277.047972
292.3539921
326.9811831
314.251306
288.9581937
296.3927859
320.1213697
307.1078968
297.9078976
287.2729983
324.4137731
331.7514683
334.1572913
319.6064193
315.4222937
351.1128987
314.9048788
275.4584948
285.4241208
295.7385839
297.3654374
297.6766288
285.3179657
287.1811892
297.1168524
306.0742641
296.1223651
308.8623383
313.3873235
323.7216413
303.2750985
310.834806
306.0553726
322.1725294
317.5180126
294.966026
282.1931596
284.6023877
288.2341372
320.6633447
344.1433842
359.3849991
326.1023842
298.5457042
298.6459975
285.9517707
281.4981124
284.1980316
290.2537391
266.0150068
305.6454914
298.8345718
318.8496573
298.7436033
304.1256499
287.2345751
291.7186064
280.1121472
254.9408357
270.6672924
287.6642764
316.3734008
323.4038013
353.3445993
314.5445003
334.4362531
346.6721006
331.1262403
312.8233076
310.3554343
260.0579058
248.9950608
229.4396673
226.4350487
261.3882601
269.8801232
264.4090054
287.5393026
275.6312311
286.3286964
318.5203457
297.8694852
304.8405749
288.1745069
299.2126782
309.8075138
283.6229176
312.0652483
326.0315692
330.5791494
308.183003
293.5151654
287.0779962
303.3554682
319.4139422
319.0789683
289.3914307
274.3922918
310.6483611
324.2128095
322.9336348
336.1191022
312.2397258
295.1939185
297.0884017
311.4818934
315.7721486
290.140035
317.7229671
290.9821585
289.8643911
290.9393829
281.4518972
262.1174531
268.3946754
277.0077581
275.3906745
281.9437309
280.492816
291.4630462
315.0365309
307.7751639
299.9385175
313.6349148
309.677931
311.4910062
332.1317761
341.6802312
304.5086931
258.1127006
283.3308268
289.7116677
350.6253555
345.563416
328.3285403
286.4250581
262.2428664
285.7538255
267.3704429
256.3467552
264.9461308
271.0227574
289.7195205
290.0165475
316.3051643
320.0215211
296.1440929
282.9485215
267.6497695
283.4667207
304.9002348
343.4123973
351.5579084
296.7141622
268.139265
255.5916087
265.158483
257.6591547
272.5239991
273.3631924
307.245872
314.6343706
343.9749917
343.316575
304.7486144
313.8136531
293.4687957
286.8781207
293.556427
306.3819352
272.2728139
299.2218057
303.2564919
279.6533346
297.8556717
316.0230979
296.9862491
295.6763458
311.4911375
337.0458798
363.9373874
354.3113482
349.835036
339.6175081
300.8745624
321.8809303
298.2692081
317.8494203
281.4210588
316.8136785
314.8269285
313.1608559
296.7871238
288.4688376
285.4173339
272.6768963
312.8020846
312.0179994
306.3858053
296.0631547
293.2026841
310.8052247
273.3239807
276.2366495
298.4804599
297.0794903
258.8936511
303.2088266
298.8581603
286.0383134
297.6080755
306.0321639
310.8953251
303.8097563
306.1407537
313.1006971
294.2890486
284.9084161
277.4690606
276.3543566
286.4401842
274.1581463
288.5560538
260.5213936
295.8445593
317.1541669
318.3520265
315.7720564
320.9561345
268.6471494
291.945372
293.1632332
279.0135068
281.4782657
268.3751272
276.7117047
286.8853167
279.3205783
304.4083005
315.7611096
320.285372
359.9667221
304.7540524
293.922785
292.7076143
294.3195848
295.4059008
270.2430373
249.5002648
284.3600108
279.7614421
274.7834702
281.4086685
262.8027199
264.8882117
274.7149313
266.6370091
321.1141817
313.5758256
307.0319022
306.6101104
291.5928675
304.6789029
310.6351669
316.8693964
298.7444345
295.9029372
297.1146811
312.439497
302.1933816
308.7473336
302.4913034
306.635309
284.8451874
275.5210911
269.5831575
293.9060429
257.7676467
249.5447792
249.0587995
243.4109822
224.0847926
273.0064604
285.1631012
313.9386657
313.4613323
290.0602164
278.3747103
275.6764007
310.5537368
324.0323119
302.3678578
307.92096
305.9195937
266.0395544
265.9645925
289.0542557
319.3945336
348.1269718
349.2641815
352.1729706
333.8853772
309.6299845
321.0429197
287.3907968
292.8450032
298.1695518
298.4364093
309.9853114
301.5074626
324.5824491
348.5147051
346.2212386
340.8993208
339.4495879
289.0111367
295.4267072
301.5707824
304.8816092
296.0738882
296.9761878
267.9233088
257.432926
263.8992901
266.0278166
303.7377368
269.5237958
280.1101782
296.9209813
291.261035
301.2852606
292.28781
301.550109
294.6290666
290.6747421
305.1649093
304.5150939
325.7208205
338.513815
302.4159062
275.0710371
274.6611061
285.1516259
272.0598217
249.7971908
239.323064
301.0208605
290.2902154
301.852907
304.1401704
325.367435
306.5227533
306.0725437
301.3120313
302.9417024
305.1466449
308.4606084
334.3829439
299.7272421
305.870031
289.623083
280.8805611
318.8147653
333.8758198
311.2160264
301.4239299
294.1347636
271.5316675
309.9647705
265.3041908
272.710393
287.4386592
305.0919303
321.208437
326.0627922
299.3075356
265.4581747
270.5743549
278.4790517
274.9423868
258.0441078
244.2406258
215.8960227
231.1799956
236.9223073
215.5770668
218.1847767
223.44833
245.0527098
297.2908241
270.0242476
284.606615
296.3375579
307.6391331
293.4753105
292.6705981
307.4746183
319.0866143
331.2307316
327.2351285
308.3157022
298.4296738
297.3001986
269.5061509
257.5594727
252.0740273
269.2899652
235.9951169
242.3276048
327.6250027
354.8062209
330.6340787
325.2771539
328.466894
318.9725047
318.2180799
330.6113039
327.8480828
319.7901544
325.3710461
318.4663725
303.3956768
291.6074185
300.8422127
296.3401597
296.2849539
311.0712953
329.3543571
329.5716382
343.4372025
308.0181493
304.7978666
312.2334597
292.1142516
316.8157607
312.8210967
310.9202115
282.2787053
333.9169348
325.1438249
316.2190535
304.0147516
319.7851982
314.5322311
318.1313893
334.8168894
326.332362
330.8392175
354.663981
338.6773449
338.7199614
301.915605
299.8377098
290.8046979
285.2465787
326.0411996
345.0380826
330.978141
330.8601852
303.7480122
309.6751068
316.3279641
306.6297504
311.7409387
294.4941871
302.9763737
308.55879
317.5175163
331.5061046
325.8574753
303.2567253
297.1989333
294.2520499
296.6377891
302.0574008
273.8292825
263.9665632
271.9733314
272.1082029
271.4070471
283.9814249
298.145258
290.3277185
318.206381
330.3227794
319.4957077
310.2226816
324.6221409
333.0760574
290.6644139
315.6748097
327.6622978
299.4462104
304.2020568
300.5805408
307.7747323
304.520808
300.3315133
310.182784
297.4556488
303.9709995
290.2044775
310.4099641
276.0237708
273.7111188
262.4858286
299.1381699
295.2252977
317.2056133
321.1213078
331.7171077
265.274345
296.6095888
307.9522374
333.5544362
355.627853
330.0980404
309.509951
330.6721418
334.3877828
311.0394501
323.7635126
350.4632808
409.2815571
409.566303
362.3505576
343.2019956
322.5666288
310.9993466
361.5032645
295.0543281
285.9930862
304.4496296
312.6487467
308.9397112
314.7363917
299.6262193
348.3935086
341.256272
316.5029097
312.5337289
307.0186721
318.3098928
331.9328405
355.113464
327.7401111
333.754328
333.6704987
369.7765297
289.5214976
289.3749958
283.7878575
283.8491072
325.1112841
336.4271724
342.5507124
348.8021297
336.674578
339.0039137
338.7629261
339.8138898
305.1585001
318.7254812
294.1961517
291.9652308
307.5148045
324.7097037
330.467633
336.9405026
286.9650333
315.8331103
313.9672666
309.9087622
282.466673
268.540496
279.0278733
305.9915551
297.5974142
303.8091913
300.8072993
289.9361315
257.9472589
267.0399654
285.2607033
262.9096919
253.4776394
257.1927269
245.8485391
258.5202589
324.7756754
329.7117034
288.5806578
293.3537488
305.8970897
322.2632839
322.8913857
301.6080003
303.2520155
320.1225155
307.4616891
310.5584351
323.6062923
295.0102637
282.0495238
303.0092786
322.9498313
351.8626403
358.3639229
341.4951567
277.9200354
257.9956684
252.2326847
248.0159612
283.600172
321.0988269
346.3734051
314.5181789
279.5474305
273.2923042
295.396471
300.1339869
310.7803301
324.5999292
337.0668191
315.8038785
297.8804367
304.2968568
293.0422757
284.5846653
268.8527368
274.1405317
268.1708524
272.7582714
275.6675115
270.5749746
268.4424429
290.2698896
287.8960636
313.8651629
308.0610435
292.5162727
278.242464
294.69426
293.3128433
310.6773808
277.0681667
279.834381
289.233842
273.4570418
344.6301691
300.2861707
301.6312238
287.1320632
265.2585878
299.1122642
279.2808676
297.6217989
318.8650962
311.7086035
313.9436132
325.0522589
297.9056892
299.4732571
286.0411534
303.6819391
321.5925914
330.6238896
335.6677071
347.6899281
328.0157622
308.8877975
304.5087157
289.6383969
254.2749891
266.6219962
282.6306915
289.9532805
305.9952328
314.7548497
308.5264047
293.428619
294.122305
310.7806352
321.5093263
323.8377111
320.9597911
317.6634143
314.7371334
321.3609741
299.2898028
313.0115937
312.7331801
299.9860889
290.9492104
312.5227181
322.0143055
333.4783151
322.9754383
325.9000408
312.8893743
317.3996476
336.0343428
319.1532364
295.0549273
305.815836
304.4108726
326.1614768
316.3607162
308.0714676
293.27932
278.4601572
291.5070955
321.4835279
332.2078281
308.6542529
326.6264639
338.8838154
305.783682
292.1896515
274.9357448
279.328369
280.7675255
272.29163
285.6887499
282.5739797
278.4468536
285.079003
271.5009023
271.5445621
275.3019245
316.5201918
348.3439854
352.6818487
315.8050065
313.6447882
309.9800712
309.0536706
340.7616427
340.4098472
326.4309051
303.8092253
317.7487818
289.7283505
301.0163241
308.8810072
305.2673605
306.7431848
303.4792717
289.2175387
313.3622991
286.68456
278.5510643
265.8556351
278.3801113
293.2205687
308.3582569
288.2198143
301.5014421
305.010051
301.2868219
285.800451
298.3363622
350.1932044
332.5010936
335.2172373
303.5315149
316.1043286
323.7561389
332.8933605
286.5904231
304.8868465
294.9464079
290.9335167
287.8044686
291.3259276
294.4259699
264.6728037
323.2426858
294.6685343
262.2006063
246.5269239
253.5416769
281.544169
307.4455693
329.0338864
298.4449873
282.8780448
303.90017
299.0553744
278.199194
309.1512669
327.6425756
329.2579749
311.9319418
280.7611499
271.2514497
293.906979
306.5737217
313.6810078
331.3046784
327.4159741
308.7856415
298.4807495
274.7450289
273.1471818
258.4315672
269.1537715
271.847534
262.9699335
274.0116017
273.8476297
287.2820679
307.1416254
293.7715876
298.1485933
309.1663781
306.5077619
282.0963535
283.2219855
282.3098542
268.3677727
271.0150043
272.4285279
307.7356035
315.3273086
322.0104136
289.4386851
305.6630094
304.7556692
294.7034652
304.3580579
301.3353428
285.4177282
302.8371181
277.0810833
294.7565996
339.5263632
326.105214
340.4752403
328.7931437
329.2089734
344.5576326
292.631652
273.4051096
271.90764
294.4545194
280.5236636
287.8291161
292.1164462
335.6293675
329.1301391
328.4305942
317.476418
298.1752049
311.3859906
293.530417
273.840654
269.5905673
283.5652352
292.7259054
298.5072655
292.6258227
292.0697718
295.2592265
286.4196104
287.8033346
303.7854907
334.291807
345.7441042
310.3062257
322.6150221
320.8404177
339.0667189
363.224266
349.4525528
337.7622124
337.2903904
321.9526461
295.2526424
291.7369834
290.7677239
322.1892454
322.9043605
320.9736207
296.3821661
287.5824461
294.6654968
277.318419
292.784301
297.3758003
289.1216874
303.669127
311.247833
297.6146688
302.078486
257.1172267
268.5757843
268.1361285
261.9268915
264.5341656
258.6949308
293.2625548
292.1142709
302.2588086
279.4934044
315.3146604
322.6560735
322.0090227
317.2223259
328.7298311
324.9919792
317.9651287
316.1138151
283.7632179
294.8119453
277.0083062
271.6505763
260.6830821
264.6775163
272.772079
296.2106363
262.1626523
268.2829406
287.5044056
289.5383168
291.1423889
306.8628487
333.8485801
300.853861
278.7527441
281.3089847
293.0769763
308.0064258
330.4777047
308.8040629
301.9213197
317.2206436
315.9157054
282.6064988
291.0410348
289.533041
318.0585383
333.3237333
324.0869457
329.6267679
317.2227219
299.5659842
292.3172304
295.738965
365.8731454
331.552951
307.1013298
282.1753937
295.5768774
301.1121852
299.9040715
307.1726725
311.3825512
305.3176608
300.879723
301.1089074
293.5810836
323.8118274
302.7337448
303.4114943
313.1944312
333.6921076
334.9885781
331.7704643
313.3300799
318.0413617
313.2466153
292.4379417
309.8974684
294.8779932
271.7121931
274.9506553
280.0820042
290.3824394
306.0144637
329.5825821
319.581207
319.8453225
333.925275
343.8934797
305.4084263
325.2094214
324.7683223
342.0453872
305.6784557
317.502381
306.0087461
314.9919911
321.7767719
310.3646777
342.3990965
312.4238699
292.6200641
305.5793597
308.7944146
331.9444325
346.3614277
331.6367841
307.1610278
295.7149004
308.3280937
309.6916211
293.0256636
291.3254258
295.4619343
303.2908232
287.677389
316.099463
310.8238628
291.5134661
286.6102434
286.6286734
302.8098188
288.3912479
289.4624852
292.4727095
288.2629097
285.977843
275.3311803
283.1329905
268.3795835
284.9448883
265.0874183
256.0999909
294.9560778
288.8932809
299.0413726
298.9305343
284.8962167
294.1899238
318.6392055
320.5787249
312.7347671
284.8197494
269.6427062
283.7930436
318.2130057
341.9812038
309.0026205
303.3609125
279.9757204
284.7326107
294.6729434
312.6317165
299.1313241
292.3203525
283.4184845
287.2853809
317.2442272
344.5980199
315.8813787
290.3227641
295.2462219
328.0584251
333.9941075
350.8513258
324.62221
337.3457635
326.7734758
334.405323
354.5114104
313.8051683
310.4097545
308.2289423
297.3779653
301.125103
317.1492052
358.2469408
326.3952418
295.7660036
286.007912
284.577761
305.451133
268.0097729
287.8976299
313.1193395
329.1739358
319.9039201
323.2397723
309.9352312
326.3245192
331.9401704
361.7021601
308.1614828
314.0406008
309.7069404
282.7279323
265.1061118
283.9984865
281.5081364
276.7976482
308.7954862
294.2716234
281.7003156
278.7409771
288.6928306
284.9395486
288.4631014
277.5911686
284.7764513
303.173122
273.0289867
268.9080895
285.2339403
300.4454854
286.5136049
289.9800782
305.0626605
309.3718782
292.2932004
328.8483839
312.3749123
304.2282635
277.2853583
287.5710152
284.9537681
314.1585056
320.8667478
335.7139857
309.4708398
315.2424322
316.8897273
326.0931874
305.8038618
322.2581063
315.0837194
312.9064396
290.4374
286.327003
271.0375613
257.0248854
233.7095838
255.1736358
288.7169931
298.3386029
320.7490551
321.7010843
353.5651767
302.5873016
315.4837809
311.0305722
311.3842933
297.4508087
308.4714975
316.3668451
322.9670827
362.4188365
360.777309
336.1356166
311.4827611
326.1724974
281.6734214
297.465999
306.6770093
296.7381848
294.1925036
299.4020921
294.2064067
304.2838356
296.1831021
289.0522863
311.4173327
297.3608331
290.8916077
306.3882628
306.6717573
315.3838622
298.9093015
295.424151
296.1342366
299.6205576
288.5673649
296.5467312
297.493101
273.6735576
277.610187
266.5659319
276.5208151
304.3665989
321.5823134
297.8466953
277.6752097
283.241539
281.6091706
326.1364783
325.7000922
309.8845158
304.3638987
314.7279097
328.2066035
345.9486159
333.2832277
309.9842188
294.4208408
300.7914458
313.2286377
316.602017
307.717194
329.2273712
312.5111426
362.9827292
365.5215944
335.8587705
347.8208274
293.6682532
320.5614948
300.9328698
305.792245
299.4840679
299.9288637
326.2866096
333.1121407
324.7381403
354.6760875
305.5381774
310.2715175
284.6536585
271.0635837
269.6200343
264.9426875
258.1099864
265.7414597
253.5773585
275.1435805
319.3804574
320.5869112
303.2332662
300.717725
287.8617924
317.1670109
292.1384019
290.1457735
309.1679415
308.7287053
328.4315868
355.2419646
359.8611811
335.2848827
296.61642
315.3683221
316.9534939
297.9846594
314.0730216
302.3114018
317.4543412
306.073693
279.9201428
282.8204241
286.1739277
293.2373757
297.7275057
289.9464327
293.1445269
308.4342684
313.6412876
321.4525414
284.4861879
289.6353738
326.6678727
334.3072919
353.6311401
350.3197184
330.2543923
330.4449835
336.5409288
312.0528908
323.1353276
316.9259644
290.8777624
308.0819687
299.8549952
269.0987556
278.5938324
278.8486641
284.3979606
311.9740739
321.0074469
334.2965
332.5620622
357.746178
354.0150651
328.9328042
328.8924041
332.0424981
292.331142
289.0594596
303.1909775
324.1306894
303.582441
314.1846645
323.7302395
304.9796994
288.9295784
282.9609857
290.7206797
246.2829035
238.7193678
245.4013952
255.5609971
279.6529432
296.6033909
294.8858897
288.1368121
304.2355611
287.0132041
304.3631249
328.8012871
326.0329274
313.5829086
311.8216988
294.9274453
301.9581543
305.1216455
286.440886
271.9631551
281.8307465
276.4465178
275.3636797
259.4310264
266.5226169
293.2739394
319.9482125
302.4935021
304.8112404
298.7001047
249.0260495
273.1478926
299.2648742
328.330598
308.1726667
331.114506
348.997061
332.6058309
384.1598229
386.5813896
359.2014577
343.3703958
341.9237863
333.7330214
344.1280089
325.6652118
308.6616578
305.1250483
321.7461194
306.963431
354.9187283
347.7939073
332.9919774
336.6675276
343.0212517
329.5485147
313.763463
337.1818931
331.5277951
302.8497299
332.9785509
338.7257634
331.5750627
307.2452668
272.1478141
253.4376179
273.794715
277.447345
280.0783021
265.5018099
261.2707329
260.1487702
279.7191653
301.9152267
281.1050785
266.8264775
252.2513811
266.0950422
272.6918715
262.9028223
287.478114
290.9612819
286.7515102
285.1621201
293.8668707
292.598598
303.421651
286.3742856
278.9176868
331.6509421
309.6757361
317.9060437
300.7209208
304.9368641
361.225577
351.4811559
331.893601
313.1529061
319.8226415
313.2889892
305.7539354
291.641822
288.6876238
325.3999944
307.5658108
321.0174493
323.3842144
341.4596475
329.7951839
292.6845713
313.9690399
329.1567895
318.9343188
324.0520905
329.2436052
311.1762135
304.2856848
275.3804114
262.7462547
246.901051
257.2545132
286.6169817
298.6977297
276.8837055
289.7770883
282.322086
302.8814753
299.4029332
290.126257
317.0979827
322.9015899
316.8978916
306.9659733
280.0425938
287.0875426
280.4986415
290.0158934
302.5570402
286.4002587
284.9861153
298.7988839
282.0147047
300.8786631
282.887053
264.0664503
264.5506523
280.5717516
273.1906424
310.322568
325.6020866
308.0658545
319.757064
309.5274875
283.739453
295.1655669
273.6451143
283.0150242
294.2583495
332.1612972
321.1533966
320.3418269
336.09427
337.5957501
332.7028914
334.8764191
326.04341
297.9478745
318.2305538
316.2682653
319.1139207
309.0644492
321.5320379
289.0765674
298.4167087
335.1289478
326.0728448
316.3451751
323.9868921
278.6187601
266.0750089
257.4059376
256.1482776
253.6900544
254.8448469
237.2461777
268.181779
297.0652158
312.9958747
312.1939891
255.5243054
264.6738327
266.014281
303.4715037
307.3689823
291.916896
278.7647156
287.7569649
276.2482125
304.8937783
289.6890876
290.1950316
292.0555273
278.6697906
275.4730859
259.4244583
269.7695914
282.153325
312.0214799
288.00026
307.4146379
326.5094143
325.7508526
316.7272596
313.4512714
319.6588893
287.3220032
291.09039
289.4083469
303.355413
313.2948888
287.544694
286.2522975
285.116594
277.0781555
314.094786
304.219189
294.0197208
325.8025047
302.7265862
296.5936212
282.1994772
279.1557172
267.8619705
278.3937009
294.0413468
287.7484539
283.7428416
269.2400059
292.4886811
284.1352824
318.1145234
297.261542
288.431315
293.7446271
297.496728
269.7192338
270.4079426
280.4908771
268.0631589
287.7614751
313.9517255
307.2683149
280.805904
282.4366656
269.9743655
269.5437133
294.5318448
305.1725837
312.1770683
324.7912527
325.0753968
311.8967978
312.0532808
322.7499059
273.1868267
295.4968178
300.9226799
286.9461989
316.056838
283.8391597
269.7513991
282.8639604
309.5653957
313.3299138
324.3723613
302.8631599
341.7339095
317.4294575
300.0021121
321.284142
330.3104833
297.6873336
285.670647
262.4710956
298.8615018
285.274921
293.5420863
302.8057946
281.0373489
367.542183
383.3560093
330.0533694
332.0774456
326.5885424
314.3377345
325.4359493
300.7131727
309.0060059
317.8847874
284.3138516
318.8433363
354.9094701
335.6673962
342.6556265
361.2065909
338.1211477
337.5926882
356.7460949
384.2569836
347.7351723
324.3316904
356.0354702
342.7346281
309.8881708
312.1928874
304.707149
304.678034
330.6341601
307.0424558
331.7237129