/*--------------------------------*- C++ -*----------------------------------*\
| =========                 |                                                 |
| \\      /  F ield         | OpenFOAM: The Open Source CFD Toolbox           |
|  \\    /   O peration     | Version:  2.4.0-MNF                             |
|   \\  /    A nd           | Web:      www.OpenFOAM.org                      |
|    \\/     M anipulation  |                                                 |
\*---------------------------------------------------------------------------*/
FoamFile
{
    version     2.0;
    format      ascii;
    class       volScalarField;
    location    "0.0006";
    object      rotationalT_mixture;
}
// * * * * * * * * * * * * * * * * * * * * * * * * * * * * * * * * * * * * * //

dimensions      [0 0 0 1 0 0 0];

internalField   nonuniform List<scalar> 
5120
(
307.3824445
291.0605493
290.6658257
295.0392759
301.2861811
288.978515
296.9455075
295.3333385
298.0276614
298.5789335
288.3713537
273.0848739
285.8689768
315.1903294
322.5432964
329.2209215
324.3442001
323.3340195
313.3837532
314.0831011
305.4235012
298.386166
295.0917548
303.2423324
308.7057347
314.82898
316.6459218
290.107952
284.0345399
277.176141
283.5038606
294.043686
292.8133421
289.6739514
292.7248675
302.7919738
294.0762726
294.2665359
310.2534424
302.4480291
304.0602214
303.5814431
310.235653
316.5526367
322.4526104
314.0207429
299.7831919
305.1108695
316.2349809
327.3219735
310.9093878
310.02084
306.6690826
307.2013216
299.6942317
291.3769543
287.3919909
283.960311
288.3128589
286.3438132
314.0400193
320.051027
319.6090878
301.9311951
297.6348524
305.1666168
304.3546779
296.1914054
287.9544138
281.0069414
277.0105478
276.8248225
284.3072039
291.6241634
294.3851277
302.4684825
304.5031668
312.5942726
305.2732003
303.9501164
306.7325254
310.1740268
294.7201035
280.3641626
286.9522386
290.0023357
291.3000162
291.6121767
296.2282446
290.9598902
285.342933
288.4835295
289.1543033
286.8733792
285.8195143
286.3227932
279.9135857
281.4758367
298.1159602
299.3186325
285.7479279
305.0490801
296.2187955
288.8647123
288.1756936
285.1372956
295.7492798
296.275957
288.1367111
299.2602111
308.4404445
293.2960386
296.2789649
294.8497623
285.3049638
296.9601464
297.3002059
315.9115634
307.8598189
293.0326417
298.946856
295.4238192
303.0584216
307.3605182
302.9033454
286.0491075
281.1233163
295.1109873
309.534359
309.432619
310.1995181
302.4061359
309.0197457
321.9436181
323.2346456
305.9615491
305.3132124
296.5977744
303.8833813
299.011382
309.4683621
305.7403242
310.3038385
301.037087
302.095365
298.5860255
282.945768
279.2539059
277.8289313
286.823486
281.7574518
298.4123025
296.4904452
299.0630271
314.19775
305.8973135
327.6191386
320.2668032
312.6492125
318.0084207
297.1231093
295.6180589
293.4455808
301.9001495
295.5557638
293.4982016
291.9235825
287.5144096
297.9776392
296.8831245
279.4554068
280.4045512
286.4010924
293.7364559
298.1781327
308.6980461
335.216499
319.5012464
312.2122331
310.5108017
310.5331364
317.7163191
310.2638457
325.8605213
332.2899056
326.2276052
324.8479664
316.2251058
306.5658576
305.0069442
290.505021
288.712088
289.5369255
280.6591708
300.2989499
303.3127492
288.6796098
291.294312
297.9714291
294.3288934
320.0793678
325.611189
322.991228
311.6860471
315.7857821
307.3344173
316.7395556
312.1263238
305.8124261
283.7755133
285.4102398
298.709907
308.3215558
307.847482
309.7577099
302.0821725
302.2535601
300.1659491
308.9065755
330.5806336
323.9494785
312.4150514
308.8772325
301.4276009
294.8804626
284.1575234
276.0814674
289.1829262
289.313298
309.3876078
306.9720917
318.1708457
313.0120286
309.2435794
305.6334596
327.1370778
333.9769369
347.0967667
332.7513191
334.4273504
307.3604528
314.7341877
300.3578002
300.0278878
297.7975498
314.8153912
305.8825111
302.625993
298.1097917
297.2671549
306.8004393
315.2495219
309.9501147
303.4976296
298.7565282
298.5313261
303.5461177
287.5863573
305.6653604
311.4912682
293.0536941
297.4897543
303.9305769
307.9226076
305.7132318
304.3170515
298.6873998
292.6223726
283.3552525
301.4045692
309.7546904
316.0440616
314.2133208
320.2580384
307.7325315
302.5291853
298.3076913
295.1341051
298.6384133
283.0170482
301.9429874
300.8548023
304.3663897
312.2865166
320.9955864
324.1063927
330.3839011
342.6838174
341.8335436
329.3585197
327.3271715
324.5716982
325.9204452
325.4720657
336.0432834
322.6971959
304.2061024
300.5352363
302.0332718
291.0858225
315.6184127
307.6734862
305.2522304
316.6613357
320.8749398
323.7861416
322.208758
315.2412233
314.3526273
329.082395
319.550381
325.164173
327.1281937
328.0978703
323.8151871
329.5758793
305.8302885
298.2502389
296.7873723
309.6547391
306.5759667
314.051859
306.7176516
296.4434168
285.7087381
281.0292778
287.1267256
284.7393885
281.7234976
287.9964269
293.0102489
297.6016613
286.2043253
270.4390565
290.368313
303.0797712
313.3326467
321.0810044
326.4461622
313.7817768
274.7365308
282.1231959
286.9201462
299.4295625
295.0221797
285.7426528
292.2689361
297.9602593
295.2973518
298.8874575
289.0694377
291.1988927
292.4761371
275.0732357
276.6316387
277.3718717
277.791642
277.9369647
274.8329582
278.4868682
302.4196359
301.3721749
307.8998972
299.7116556
290.2873742
289.7208725
287.4548686
286.8538642
281.5076315
270.2821812
283.2223081
282.7377581
278.375968
269.4947116
280.9068749
291.5211051
283.5520998
283.4166514
295.6158414
287.630446
304.6220896
291.8368458
287.9569891
289.050819
291.2815881
282.1861877
283.1588929
285.2085129
286.8845453
285.2836251
283.5665745
267.1089951
267.6117221
281.5368819
281.1693188
289.4422334
295.8963217
284.3280529
293.5366992
313.4450957
269.6656094
284.3881849
288.2479196
284.2954348
278.7775274
286.9985913
284.254766
278.3852258
277.7944777
283.179327
301.2021775
302.0860566
296.0443586
288.1458986
284.2199942
275.600351
294.6222126
293.140133
295.5096117
273.208907
279.0696336
280.0999982
290.9676693
298.513156
289.6734108
278.6990377
273.870902
289.3596879
283.3858641
277.3175676
256.3864911
261.7952737
278.7480651
281.7066975
283.2167054
290.6035788
290.1276451
270.7034152
269.6042972
272.6686624
284.2343565
294.6588462
304.3921084
302.2836517
290.6804597
284.7503587
302.9766097
300.4749965
322.5611658
321.5775526
324.3177841
313.8262684
310.8066615
303.0545713
302.7478471
286.0946663
290.217983
290.8861202
291.3950491
290.6827466
308.2109763
311.8537808
306.5796148
299.1307594
302.0174179
309.3851473
315.1475174
303.1577051
305.6343293
297.0176085
317.9980918
327.4723356
315.5690565
315.2158916
319.5782743
327.6071405
323.4395636
315.1870379
312.3633944
319.4190395
318.3472924
328.7536976
320.3269356
314.1748666
304.1128568
299.908778
303.4337195
307.6066711
298.9718357
302.4093264
294.5513532
301.9009293
299.5381781
310.8204586
298.0639532
292.4575547
291.7454487
291.6323964
302.2215036
313.8790829
283.2186226
285.473645
293.0774653
300.1644998
293.4722373
292.6554772
282.9773444
271.7085889
284.6224402
290.5439162
297.8352207
294.5120304
313.3040977
302.9879814
313.3961385
303.7331338
294.9394658
291.9662147
280.6556281
277.1731326
288.5933321
278.3381187
281.6472528
273.2600601
289.1107332
293.1389575
306.2413085
311.6816026
312.4452934
321.0892677
320.5525462
306.395561
297.3620651
296.2784085
292.2159216
281.7502004
270.2402204
284.9177523
287.4171927
286.2510675
316.8141614
316.7708329
319.0702074
318.7138967
324.4809158
311.5387754
308.2073895
302.3700483
308.2587172
311.1850999
320.2413809
315.5270472
299.1757938
301.3975438
304.2249315
321.4137415
314.1920444
318.3140729
317.9411479
317.9110054
314.4046501
313.9473942
302.8818634
304.0574034
307.6962342
299.7027954
304.1434909
299.8593959
317.2253822
325.7197175
320.6943433
310.1535986
296.8504824
317.9716843
319.3147336
312.5906199
311.5669151
311.9799122
303.0645986
310.2733484
301.3929905
295.4413029
305.7419732
297.3384867
296.2886522
302.3623639
308.4719109
308.985616
304.0789397
288.8209364
295.1810481
305.2810305
309.6785129
309.5955249
310.0419299
326.425323
319.7909596
315.5865062
307.9238903
302.943589
314.231979
315.2971712
317.4960107
321.2708171
322.4560261
310.927665
297.182077
298.5235194
300.8666373
289.6331361
300.5260869
298.4293549
311.7232567
325.3570976
324.8542457
336.6133154
339.7097516
332.6054035
339.7436121
318.6190613
339.4574643
326.1591597
311.485565
304.7312142
313.4853866
315.1814397
310.9833231
309.6384168
305.4438306
293.8583339
306.7655954
311.1995068
310.7730026
312.6083567
308.4227601
307.4513822
311.0749134
331.8471488
330.4037435
341.4850611
302.4948225
296.9200434
296.7736624
291.2938491
292.383401
288.7975136
292.5469177
290.4441984
289.3689086
296.8061389
304.0337281
291.0431335
298.0299763
281.7699777
288.1921637
297.0623272
295.3779126
305.3628039
294.5509961
319.2112798
291.809242
277.4776426
274.4163094
274.0123241
287.0685843
288.2378754
298.1194323
295.9314278
296.2131125
289.4947477
292.309194
299.9836267
301.288797
315.8672306
303.4118966
300.7978767
297.398957
299.2172917
296.3277476
291.7971403
296.7029012
321.2696256
308.6869898
292.6325082
293.0063114
295.6485985
290.4436832
287.1963175
284.7530874
279.5144469
292.3429619
294.2134274
292.6562096
302.5144802
302.3195852
297.9099161
286.2664034
284.6573415
285.4441874
280.5170541
292.8754894
278.7859183
287.8219478
304.002858
302.2381419
301.3804643
308.9508316
303.5725144
291.218276
294.8151656
300.4239181
309.0404105
293.8820746
287.0184821
283.6347323
266.7192568
272.0484761
286.9646968
280.4322418
286.6002513
276.7676279
278.7642139
285.7177273
289.8002141
280.0268011
293.2968115
283.776711
297.3910809
306.3289754
306.7039287
305.165559
312.8788331
300.1435949
288.689004
301.7888032
297.5772346
298.6435358
296.8949493
282.3232729
276.9598676
285.2949184
286.0008673
287.3496308
295.3679954
306.7375146
308.8506466
311.8309801
303.0638544
307.6806575
306.8915674
310.8420098
305.7573925
303.168752
293.8073525
291.3480865
280.4254651
271.8006779
280.5682866
287.0167127
291.2054181
316.4790209
296.5784135
299.7753522
301.6027197
316.4258683
307.2656051
310.5751165
310.1595461
296.6889795
293.8029528
280.9300623
285.8860088
299.0896155
307.9872881
303.7216381
295.0992267
289.6082806
299.5810473
310.2821891
318.709596
296.8869725
313.0247882
324.5453433
331.2887049
343.7026427
343.3448042
331.0510011
315.1793077
309.1033276
312.5425115
289.8116187
285.1701114
292.336316
298.9102233
297.953232
315.7306736
320.7337344
328.870941
307.0783817
306.6035087
301.4039919
307.9000103
283.8349421
280.9808206
280.9293058
279.5078961
295.7748441
316.0832855
311.5132549
309.2504422
317.3832151
306.4594014
290.6183292
279.3505765
286.2106611
282.6934113
286.5987504
296.511534
308.7442371
307.9690835
279.1607652
279.6521842
273.4831677
278.4541275
276.6027215
285.6215341
283.1275692
286.8896314
286.1145017
285.4909971
284.6817822
293.8094607
297.5308384
298.329878
306.2621326
297.4284442
307.1332548
292.0745465
279.4913759
286.7790367
287.7211103
302.4655776
329.233778
319.3248705
324.6237239
322.478635
314.2439387
312.9770162
301.8753879
291.3033984
291.3355427
290.0612821
286.113197
285.7305436
282.0241468
288.2762765
295.5041767
300.9930628
288.7464404
290.9900581
317.8108762
304.3523264
284.2398472
287.2677448
289.5819301
301.8444926
294.9754353
296.7119568
294.6355097
295.0432338
300.5985643
313.4717515
320.2069254
315.4673613
313.5979852
300.8769834
291.1987756
286.6903521
292.4356477
303.8860406
273.9264737
287.8020867
293.2921721
317.634069
311.4296557
315.4852018
311.1660134
305.7789049
294.5041
280.5925794
278.8003604
282.0646784
284.6338745
285.681674
290.4354488
295.5477031
307.6820215
321.1935512
312.4106372
300.1787465
292.1908276
283.6546168
277.8087151
269.2003324
265.5855027
278.144165
286.5071201
281.7925221
290.4994993
300.7440981
321.1799949
317.9051204
302.1839015
306.1659595
298.492145
294.415411
300.8681345
295.7055573
297.4904351
301.9090397
302.1165478
299.0022296
270.381595
275.4845639
265.3017418
280.959578
297.2145253
289.3038302
290.9558042
306.0807729
294.8130972
293.1765415
290.666395
295.9744224
297.616807
289.3912004
286.806148
283.8340655
282.9489574
299.2054703
299.72056
312.1627069
307.9500936
303.0185459
292.3891819
288.0290722
295.3248587
296.2133302
295.5330037
297.4859127
302.7951198
313.1125099
308.8067471
301.0322327
312.2826516
301.6814678
304.8405672
307.1272356
307.4630979
300.9962766
294.394138
288.0296641
294.3477186
315.001822
314.0140723
308.5802823
295.0470192
293.7377556
286.3846019
271.7439289
267.1051881
280.61779
273.7923605
291.4039251
284.2945626
294.685665
303.7084578
315.9692181
304.6913893
297.0235218
286.7258209
289.7661437
295.2644101
302.9535712
303.1055644
287.3370393
276.294934
291.78567
291.4852347
309.4462906
311.0889111
307.3898415
300.4912107
306.3851877
315.5146543
315.0921142
308.0229872
293.2301512
284.2391218
288.0631987
273.2975233
266.0913143
282.9553119
291.4223945
280.6991643
297.689344
294.0825484
297.3420236
286.2174444
279.6399762
290.1629948
307.1362203
301.9618583
300.5990094
299.8326702
293.7417387
290.1325455
275.1298211
273.3327365
271.6983265
298.6862413
290.2834384
288.5234238
294.6650757
285.48371
285.0937774
287.4380106
300.5318086
318.8997047
314.3119269
291.7861478
288.7214405
298.2335498
291.9968971
300.492814
294.3660767
309.3866687
299.2011782
301.7850378
292.3762081
298.5813457
309.0808945
314.1989823
313.8860755
317.6111742
313.1861886
297.0221759
293.1518401
293.5519864
295.0534255
278.87206
285.848012
294.9948415
299.3945329
303.6215853
299.0515888
297.9739918
306.0152077
317.6414865
323.0939355
329.7132525
331.5364087
332.3723728
314.765148
298.7142522
301.0579882
296.3702767
296.2256522
299.7184449
303.8407906
309.8447434
299.8039008
306.9623435
289.1170042
279.5355725
273.3902026
288.7951244
286.0417463
294.6759638
300.1439042
288.0730526
289.1351979
292.414609
298.0498921
289.8477684
287.9403443
298.7196852
294.9983173
296.1722212
289.4217635
292.5575482
290.6642289
291.7109072
291.8537499
291.7596867
303.2279896
304.7034851
301.7090431
297.5825689
293.0636592
305.384257
302.707694
290.9767072
291.33649
288.7683069
291.116704
299.4264518
305.9690854
291.6594086
299.4297408
295.0334341
296.8657686
280.2669785
295.7628653
292.8040777
290.3584726
293.5265655
285.3806575
297.3501388
294.1372764
304.6836981
292.0169301
296.178944
298.9469007
293.6730134
290.129745
292.2759949
311.9812177
317.388546
318.0034722
325.2197559
317.4025704
316.1697454
317.9508446
318.7589449
299.673918
294.647377
306.5915717
291.3057778
297.4738867
300.3311248
293.3255759
302.0292105
295.605731
302.0180619
304.8548908
287.1995279
282.3126773
288.7027945
298.2103269
289.4622245
296.6916944
283.5807839
287.5732257
286.8106817
282.503651
286.9988517
286.0379802
296.5842035
293.0901751
303.8591761
303.7553852
302.3058825
294.6000422
295.1214655
301.4220584
306.1296344
297.1002801
312.4128553
314.524352
314.9693628
314.8746601
309.9320456
309.6936517
313.8284685
302.4194531
302.7703905
302.7610673
303.3543928
310.9089477
284.8914121
289.4127627
290.0150578
289.6096625
286.367843
293.3926407
301.0465162
289.7207539
297.5694779
289.5871123
285.9459023
292.3355649
298.8252647
292.4641131
292.9152168
292.6145495
302.5124517
307.3211573
304.4662769
293.7430449
277.9362964
273.8759733
269.1329264
272.2834374
287.1247078
277.7977334
269.8383121
279.2103478
280.2275166
277.5113364
275.0497482
267.9100404
267.0322111
259.3825861
271.3839025
277.0815251
269.3968364
261.218366
268.3922179
276.0964735
304.2996328
300.0009242
305.2562101
309.4840517
300.2426467
295.5696916
291.6947308
289.4177988
289.7782349
295.9213356
297.2228336
295.928006
286.8242357
293.4861055
278.7554523
283.1948415
285.4689749
297.0512253
290.1056366
290.0736652
311.7048573
324.1486688
327.1318055
327.2421586
328.3236096
313.7877939
299.1007405
310.9639316
313.5517735
318.1472654
306.4486741
312.653902
305.1922015
295.7519171
298.1486604
284.2234071
296.0097429
305.5600133
305.6435956
299.5879475
309.7589868
311.5154562
297.7541166
305.2504837
305.9220287
311.2409394
312.4170766
299.5930976
291.9421086
312.1401731
319.5709942
325.4107851
312.2639684
319.9411088
300.5491998
293.6685408
289.316894
284.8566621
285.9339675
295.5779631
297.9364341
304.1369321
283.1574067
293.9603906
283.7391984
285.9137424
295.9883437
311.0544146
304.6803417
310.4474816
305.9155594
303.6024392
297.7139401
301.8126378
304.1415083
295.9802277
291.7305626
276.3333196
286.738932
301.0615872
306.46688
294.4033176
296.9764551
306.8871116
319.7653175
315.4470267
313.749013
321.2754645
295.8591405
281.6338434
277.3965929
286.0779567
287.5753241
285.1902102
283.7538979
285.1364723
280.6234657
289.035813
289.0439258
297.4868326
279.2454882
287.3423049
301.5348526
288.3594822
290.1216432
288.6945165
292.2275903
289.5808138
289.0238199
307.1041596
293.9387614
299.2951934
293.8377722
292.7903027
280.9304501
277.3140581
272.8036081
271.9359753
271.7539891
274.3899935
303.1016542
304.1424112
288.1092181
282.6176439
297.2070567
312.6973376
307.6908251
303.6892737
311.0658489
319.6624613
323.4770477
313.4313056
309.1444658
318.3553459
327.7377258
326.4611832
322.1325637
316.0689046
309.3454443
296.3638393
327.7659536
307.1845297
303.423953
302.649313
285.4479648
285.3103941
302.8756845
296.9897629
314.6130797
307.1193621
303.1405242
290.206796
288.6182
304.8874359
298.9039658
307.4053535
287.8924295
289.0178478
305.1737701
323.5995785
295.3573531
297.2966379
291.6864548
292.3939915
307.2304082
309.5493563
327.6412675
336.6116288
320.1485292
312.5579744
319.4607636
329.6454955
321.958898
313.6568423
319.7703335
325.5198629
322.452269
317.9033813
299.2950928
299.6424481
281.5489813
280.0434179
293.1727964
291.9873272
282.2762429
269.9849813
272.0899984
283.3913562
301.8460619
315.0592137
319.5468933
318.4362407
306.4980392
306.384164
293.5510427
294.3785271
286.3181101
297.145125
285.1317653
290.5177407
291.5486309
292.5192454
276.3125407
293.9015416
291.4708372
291.250906
284.6022869
285.9113458
284.5170697
286.7858987
285.8888503
287.9164792
296.2407914
296.8760954
291.4303455
293.6328736
303.3364172
296.5317949
286.0192239
284.9126228
284.1310523
302.741724
303.8777786
279.9728521
300.1284411
311.552965
307.8544911
291.6535611
278.6761913
280.700807
279.5761662
286.014351
290.853488
286.8268189
289.4268226
289.7427067
292.9771643
296.0766175
297.3602091
295.5851581
285.3636716
283.080293
287.7806822
298.8085747
298.0897816
290.1554089
297.9405679
296.0669811
285.0066776
287.3919558
298.5492785
302.183587
315.0101924
316.7704766
310.6299055
298.8374688
286.3616426
285.5278067
288.1868618
285.7200994
307.214644
296.5073071
283.5958927
280.5898484
279.9379284
277.5960568
280.9066547
285.6216715
298.3408815
294.6115118
299.7370978
298.6827229
282.0898869
293.0751309
300.673079
310.8369242
309.3364508
310.3332246
304.9685326
304.079757
310.7282533
303.5721776
293.4007396
295.1434468
296.906937
295.7295146
295.4510144
301.3486468
300.6204579
301.1712391
300.1066937
296.6400076
300.324952
315.048141
307.4086685
305.0101311
307.3174305
305.5703286
304.8003125
306.6314267
307.0049809
304.1541582
300.3441236
291.4685013
287.344227
295.1562576
300.2889155
294.758284
298.9507559
300.4625279
295.0168808
284.634335
292.1060102
296.6042553
300.739339
302.0255904
297.4459813
302.4652239
306.2662189
305.9150319
295.8730626
302.5112387
301.9149192
302.941785
306.028402
289.0495476
292.9439222
296.5892916
304.669065
298.5355857
293.1148448
313.1542849
328.2502661
333.1122883
316.8931681
292.2127697
294.3804657
292.8080995
293.969494
293.6934798
286.2340334
304.8887609
310.4517085
319.2147834
312.3281347
320.9066874
310.8330313
319.4411896
316.7847813
313.3146512
315.5096389
311.8486181
310.2619972
297.2476165
307.2565272
311.2804432
298.4924539
295.402707
298.261916
295.7944625
301.7923436
306.0816749
311.6028312
296.4554912
310.2932367
300.4026804
311.7800007
299.2838129
304.115459
310.6711156
301.575271
295.5570734
287.5646675
304.2686527
303.750512
309.6358531
298.5319947
303.2851198
301.4975046
311.4095308
298.7373515
315.7854677
315.9713472
310.6057605
303.8245431
309.0920715
304.404166
287.5573154
297.4464483
277.0977899
275.5285878
279.7303801
285.7312484
296.6601647
312.2797524
316.1227548
300.8999841
298.1805487
302.322021
299.8287102
304.6576243
311.6839454
303.8354709
306.9453037
298.5577898
300.7612861
285.5786261
288.8487334
307.8299147
308.2733225
320.623187
312.6027567
310.7866591
295.7894735
296.3409071
287.3147184
289.1385784
304.822511
291.3014606
289.0494241
299.3247269
288.6432066
297.2929974
312.4649102
313.6032332
304.9110551
318.5086079
306.8118088
299.5889426
295.2604222
293.0241844
281.844075
284.0599099
277.655915
290.9570641
293.298426
289.3436282
297.9612574
306.0670752
318.2440351
283.2541052
299.3226769
292.4648851
294.4452328
295.5117226
288.1930031
289.5572221
299.6288361
307.8854272
312.8328893
316.2774874
314.3276084
316.4472808
315.5442598
311.5408147
307.8735388
305.656257
296.8917451
299.6899576
288.5163351
308.1258498
297.0385977
299.333187
295.8921249
299.3422843
301.4546949
296.070314
285.9458167
282.5721349
300.4726654
306.5919332
307.7875986
309.1689747
296.2482066
285.9738476
284.359239
281.0217691
286.9856087
300.4600311
305.8437301
290.9896082
289.4047994
302.0406707
285.7675006
294.7871972
295.1955269
291.4943247
297.5377852
298.4318258
307.1453503
309.5443634
313.1040573
323.2455153
313.2745154
312.0117362
294.9891972
296.9730821
301.5324655
294.7677571
296.5411463
315.235209
301.166939
308.0541497
311.8074842
302.6716569
302.5509943
290.75329
295.4932081
289.1980418
276.2420626
278.2472808
276.2171924
285.2212243
295.7405635
310.8428158
306.884064
325.9226963
319.1963416
313.74627
315.4529043
289.7925159
296.6785948
297.648892
292.1986373
290.7153314
282.880531
286.7798879
292.724115
301.0562567
290.4073615
293.4071917
300.3727538
291.5054672
279.6997732
287.9634502
291.7755739
286.4687399
293.8349386
293.1123829
284.8662745
314.2844897
327.3650199
317.1784553
311.4175946
308.3314045
300.231221
299.7371679
295.6121235
303.0115369
302.5720383
301.7265521
303.0396797
295.1495311
303.8961907
297.5435857
304.9171756
299.6299307
297.7604041
298.4799411
318.0132511
305.0777803
306.4478305
296.1804875
289.1848694
296.1489608
296.9829208
299.2516391
301.9188856
298.0608517
302.336842
293.7527533
300.5985127
299.2473137
298.3967954
299.5475069
287.1045126
280.8575219
294.2951835
301.8607258
301.0581994
304.1555896
300.6205444
317.7260843
318.7983591
302.9859714
297.0967581
280.9279538
283.126211
292.3908699
299.6138146
301.7631469
304.7803144
297.2338936
285.2158642
293.3555715
305.6752151
294.0985501
288.6963894
291.1170044
299.2168618
284.2185191
293.0014219
292.642025
299.6764885
305.1993373
295.96522
302.6341366
294.8141269
305.4476372
300.9980597
306.6877853
318.2850452
322.1333348
313.0470163
301.2168468
288.0578437
296.8029023
296.8852355
289.3711044
286.9984135
307.0589699
318.7738615
314.690103
330.9745727
317.5863309
310.6616348
299.3349528
306.0864289
309.03619
302.1040141
301.4822076
302.3023299
300.0778972
302.745399
299.1388328
310.229112
307.393213
319.6051729
317.1561545
305.5750784
293.1526816
288.5139237
298.3546875
302.2386714
302.8410995
301.3329674
313.2433671
310.1742059
310.7624353
302.1406468
298.5608188
289.699352
289.9991482
307.5543604
314.7172117
330.3617448
331.7447599
333.6333472
314.1793214
309.4231192
299.1068578
299.5584484
292.2348352
292.5023784
302.9827035
315.6183339
300.9199495
301.736721
293.0199866
294.9359909
306.2652337
325.7243811
312.9777174
317.6733084
313.483986
313.3151801
312.7116888
302.2993824
302.0092795
300.9043492
320.548211
310.7646941
308.0539819
313.2959465
305.7765595
307.3749562
307.948397
309.8599152
312.2803966
303.1142298
297.8304171
301.6052659
308.4563256
307.1459637
305.7216639
315.1097227
312.325142
311.9575966
325.6311208
312.672823
321.6153611
319.2562922
306.6503505
299.5309369
305.2639565
308.2363841
313.4481012
311.5683126
306.8065326
303.3748651
299.8907318
293.3837518
290.4967762
286.4629368
300.7180484
306.4123585
313.8416146
307.8834308
314.4292585
326.3147933
299.4395174
312.6154532
315.9938678
310.3554225
316.0591478
301.9142974
309.1707691
311.5294733
310.027466
300.2972933
303.6018315
318.9195289
321.7566495
326.6074767
320.4864267
312.6408922
318.1698885
317.2381669
311.638609
301.6619179
304.7408471
310.6875131
311.1785994
295.0049994
294.8124353
294.7174766
301.9698234
296.711662
292.3200127
303.06875
307.3688457
309.5080674
304.7327406
314.3492111
306.2092608
311.1141265
306.4567213
300.2348048
304.3522259
304.5375412
298.4667231
286.4265957
288.6234309
289.4453545
286.3700715
285.1588562
286.2895593
283.4398233
305.4599866
307.0828668
300.2543025
297.2811227
294.8429003
295.5925817
308.9476186
319.1566286
313.2934845
325.5312843
309.8603998
300.0090921
302.1270875
311.6915232
320.0114161
317.798414
306.80461
303.3002957
299.3349615
299.7331741
293.3038276
283.4869128
282.9217597
282.0700842
288.9202426
298.3193246
301.7721954
309.6793787
294.8258337
281.4657532
281.1497139
285.5116443
294.8222154
289.1496972
289.069849
295.2274113
310.3386974
318.3605243
316.9540945
310.6833138
305.1885906
306.4473525
295.7607562
286.8799578
300.5257342
301.0213577
303.3437504
304.9810593
316.126596
320.1250563
310.7397658
311.2801379
306.2068453
316.7494509
315.4094138
303.0250339
297.4959222
299.0553104
297.8956512
294.3628667
285.9584333
299.8498318
304.5299389
316.1225364
301.615315
304.6847991
296.2479128
292.359122
287.1396482
285.0866951
288.7787439
299.7104924
303.1088595
299.8108666
288.561204
274.3804293
278.7117466
288.8082321
279.1334551
283.4893038
302.2721009
298.05305
311.2559641
329.8270172
331.2211403
319.2301176
313.8383786
311.547778
315.5627375
315.0098833
298.5268607
289.4102776
287.8705149
274.090206
278.8289631
292.9763268
299.5128666
288.7418378
297.839676
289.5208184
269.8533839
264.283682
265.7746649
278.5367425
287.2063429
298.1332994
294.8504861
293.4314017
292.9912085
285.2434909
283.8957974
288.3491288
307.2845748
307.6208228
306.9658041
301.2679131
287.1689034
300.8948544
306.177606
289.9219027
293.045079
290.3833978
294.5316183
295.8118942
296.4992369
291.9035941
297.4803877
311.2237705
321.3584403
311.1008292
311.5982137
297.0769734
305.5826814
310.3875673
310.578239
316.3478442
319.7658469
307.5646977
301.1160716
298.4592345
287.3840114
290.6773418
298.9456788
297.0605744
289.8211832
274.6167136
284.7110707
281.836321
295.7268812
307.851413
306.4678436
297.1825302
307.1043805
309.8922388
318.5735904
325.0905395
328.0978207
341.9265589
340.5238875
344.4186127
332.5456887
318.0306722
297.1820806
294.3854164
293.065924
297.1633906
288.0462424
282.2452297
283.2026895
286.4150049
289.6366109
305.3960656
334.1946487
309.8291292
324.8986492
325.6094432
326.6617816
311.9630832
317.4573939
324.1480323
319.9851872
335.7156946
336.7545174
327.1467483
325.1344169
330.9654117
319.4059144
323.2413618
325.1236874
324.4614111
316.8702126
327.0837573
307.4936197
318.0265812
309.4292679
311.9798774
312.9205533
312.7559955
315.2729773
307.7458743
307.089054
298.3629304
295.4004511
311.2995119
320.4290389
319.3879007
306.6163397
293.6912215
282.6642657
289.2822033
291.4939895
301.6898018
292.9443242
294.8025506
312.5085436
308.7047799
308.6612147
299.0410542
296.144803
296.215917
313.3583382
314.468422
304.2158358
309.7636577
307.895874
309.7588503
295.1709135
304.753052
303.6840698
320.5258272
300.9408855
298.7290052
331.4490078
315.216149
307.1014073
297.9727855
310.1869908
318.1890173
314.9074068
313.7323429
310.1790933
330.2660899
327.4161322
330.6099781
332.9786418
329.0673472
339.8335733
312.7894668
312.1089476
322.6599254
331.0172855
325.2099703
292.0034303
293.5102816
308.9304744
311.7455695
316.1278086
305.7476518
297.2794246
293.8352087
281.3281916
264.4395939
280.1402569
299.9708881
309.5196503
320.2537219
294.031095
299.2923834
299.0453876
295.578182
296.9084569
291.5883455
287.652339
284.0422084
299.5680089
304.2489749
299.0601324
300.9609428
300.9907586
301.6780623
306.9831285
305.1746238
309.6612144
304.5254966
298.158002
294.8909459
302.970476
295.0757871
298.6197431
300.5128647
281.9170093
298.6385727
324.4139424
313.6605082
312.8506282
313.0182495
301.3094098
298.1237848
293.5593898
305.1707114
309.0090841
318.9658719
316.9386068
324.918727
324.2604896
322.1047477
327.479677
312.8658449
299.4294305
303.2981019
321.4355271
322.5169473
289.5300031
289.610628
288.7552065
290.4175219
297.3863897
302.9541223
295.3430439
296.0851446
284.4761935
273.2542514
273.3569961
277.3453016
283.9084046
276.9435651
285.5717714
278.499883
278.6621845
290.1396557
281.5609495
291.7489589
288.8470039
294.7860842
294.7020901
313.1955326
311.5614998
309.4658585
303.4893578
305.8904991
307.6857786
308.5894296
305.2275058
298.6638577
292.7206595
288.2185503
282.4578706
275.1180901
282.7477635
281.5941205
305.1122449
294.7401591
306.5011127
310.3719645
312.9612643
310.31689
299.2412375
297.8302919
298.8725079
295.5015866
298.7033036
311.6601355
306.4458619
292.9026848
283.1389496
284.1407568
295.1429021
297.6583339
290.5731941
288.2679224
298.4377959
300.5063585
294.1012631
292.9009807
288.7314101
286.398614
283.5791613
296.8934204
292.8305862
293.9052264
292.997119
278.5770299
289.2532625
300.1274956
294.3678121
293.1701641
294.8632716
296.4836716
290.072295
285.9746213
283.5902777
286.2398983
290.775104
291.7175797
293.0083961
297.0611572
295.7586006
298.859553
304.3276093
298.755158
299.7773985
318.5560988
312.2501462
300.5307179
292.3223282
293.8058902
284.4090279
272.6196887
282.971453
284.0748504
291.1779318
296.8278005
275.6371292
270.094266
282.4415742
298.2057498
285.0857894
293.08296
294.7298233
295.5525905
289.6530368
279.3003146
281.3171566
267.1652869
272.8207598
272.2962791
271.3085797
284.7469495
288.1190647
280.9369439
276.6226751
272.9768013
301.4247816
300.1767388
291.6433948
306.8853727
296.122057
286.2150726
297.3888778
295.84081
320.2089369
320.3506701
310.5021857
315.3144199
314.9471313
315.3128999
306.6821344
310.5686598
301.7765834
319.4475176
315.6568653
311.7953999
314.9566117
304.21826
307.8566412
298.4448587
285.2585595
297.3334456
304.7975511
291.7093195
294.5700667