/*--------------------------------*- C++ -*----------------------------------*\
| =========                 |                                                 |
| \\      /  F ield         | OpenFOAM: The Open Source CFD Toolbox           |
|  \\    /   O peration     | Version:  2.4.0-MNF                             |
|   \\  /    A nd           | Web:      www.OpenFOAM.org                      |
|    \\/     M anipulation  |                                                 |
\*---------------------------------------------------------------------------*/
FoamFile
{
    version     2.0;
    format      ascii;
    class       volScalarField;
    location    "0.0006";
    object      rotationalT_N2;
}
// * * * * * * * * * * * * * * * * * * * * * * * * * * * * * * * * * * * * * //

dimensions      [0 0 0 1 0 0 0];

internalField   nonuniform List<scalar> 
5120
(
316.4401878
297.4581292
282.8516841
284.9222565
291.6185439
273.5289695
285.728685
296.059904
300.0822876
295.3043326
289.50721
270.0810945
289.0133737
321.6725482
328.9412767
337.0918226
324.667162
334.0494418
324.1011964
325.0548815
301.4982983
298.8871688
295.9675951
300.1924528
304.4711851
316.1497412
316.0264432
290.1314121
278.1030717
272.0022272
279.2566544
290.298878
291.0106665
287.0232041
289.2762801
309.0702253
301.8958059
296.6506511
310.0589838
302.3415022
298.8790905
297.9958682
305.7591356
300.8032491
305.7341028
296.4969197
294.8162205
303.6167242
317.6186592
331.104101
315.8365333
314.0374135
306.7918791
313.9072372
311.4535593
298.049707
298.5529807
301.0325755
298.7686371
292.9126036
316.6940006
319.2020925
320.2179342
307.3913646
310.8377637
317.7503509
305.7905597
288.6994572
287.8172956
271.1359164
269.8907395
282.0844493
289.8212207
296.1684704
299.1953603
306.892309
306.5986469
325.4755314
318.3841985
309.3328663
301.9889742
310.7535185
287.4515091
276.3250647
279.5635128
277.641391
279.6161713
282.2918727
287.747971
295.9470728
287.2191873
287.140991
288.3351337
280.2749352
286.0347787
282.5950798
278.0120283
278.0139837
295.5130993
292.8691192
279.8835932
292.2687223
289.5270714
285.9240753
284.5303414
278.1313451
295.0899885
296.4911426
285.0129923
280.629466
293.5661999
282.3402713
284.2801257
278.5858889
273.8778716
288.9412008
292.0252181
305.7579689
304.3856962
291.4297323
297.4829865
293.4254685
300.9803336
310.6647784
303.8904702
283.855792
278.9694859
295.9245766
314.3484469
314.9869064
324.796362
312.2073417
309.9156804
326.2018878
329.3876242
311.3955318
311.9204881
291.3969999
300.8829212
294.0925083
308.6741363
304.3945443
303.6496747
299.1448475
298.8786086
296.813725
286.0757223
289.6903735
285.4508381
289.7602727
279.1005478
299.8450371
299.662674
299.4429044
313.5907382
312.7833683
341.9633636
334.5583413
319.9077735
319.9958574
294.0839698
290.9770368
291.8787446
302.9885598
298.9345197
291.0107562
289.0954763
296.6212805
308.4238345
304.5819479
282.2836218
288.9978079
297.2646138
312.6342969
305.9649558
304.9564659
321.0269504
311.0896668
304.447925
303.7724867
314.7199625
328.7556354
317.7271739
333.9053503
343.7409233
334.5650073
337.7941322
328.7670647
316.8647581
317.4951818
299.0016533
291.0621943
291.2035727
276.265052
301.5911534
309.1427252
296.3179103
298.8121753
303.7962841
301.1137591
315.4626686
322.4379775
318.5893613
303.5366668
308.0631311
306.8381348
317.4657999
308.8363918
299.7746988
283.2038678
281.228995
292.5295014
299.7048458
302.7558275
302.6194426
291.4630882
293.7022207
292.1060159
308.4989706
331.7164925
332.252762
323.7675612
315.0972131
313.0084855
308.5419855
293.2953433
277.6835957
288.071678
281.4239844
297.7582304
294.7854349
311.2764029
306.188468
300.9709769
295.8383133
328.6147082
339.7783232
348.3498575
327.7437386
335.0553728
313.8633441
326.0393753
306.1247058
296.3654364
290.7134962
315.6931831
304.1232659
295.304506
290.6744907
283.8973592
306.2983676
320.6582875
323.1940696
307.6563668
303.9754162
309.4601435
313.6445712
293.7389683
309.3694509
318.4751412
282.9138688
288.4169869
298.9988079
309.9715044
304.1949688
300.2078173
297.6629649
288.976787
280.8702481
291.6982584
304.2337538
293.9489197
298.7034546
309.5396468
296.7703583
297.5621774
294.5830288
293.0128396
284.5965768
274.1424673
294.897997
298.0470825
303.0789826
314.8943503
321.2265704
327.3037029
321.9162075
332.2164275
328.2855135
322.6061615
323.2989268
327.4577123
327.3994824
327.6546328
329.3784498
309.705453
289.2875087
288.1085518
285.066091
279.6456553
313.0814387
308.8403521
307.7540083
317.7061785
319.7967161
319.9776747
315.8508818
313.0629873
313.0550921
340.7660853
322.8600081
330.5242921
330.3871261
333.8071509
329.1469519
334.4460756
301.9335307
291.6777221
285.9597288
298.9266011
306.9539409
312.4674155
304.4220348
291.3423013
271.6882872
272.2920494
282.5501088
288.1837658
282.792076
290.9267148
300.5624264
303.3189684
293.1888003
275.5982578
296.8977515
306.7169127
325.4312104
335.1680765
338.3805968
318.0722155
279.891795
284.2203429
288.1724704
300.5270758
300.7689709
292.8484915
293.2745115
294.1976198
287.6847654
294.1885736
286.672786
290.7660311
288.2773674
269.3757805
275.2151518
273.927872
273.07274
265.924287
273.0419229
281.0486287
304.9929401
300.1795856
307.0797399
297.8674983
291.018575
292.6825517
289.9997843
285.0062579
289.1071453
273.0231373
282.902553
286.5059658
281.5523826
277.3685779
291.6761669
300.1585127
285.0064184
283.8145345
295.7634647
286.3329535
317.4074712
308.9996028
294.9315633
291.313317
283.3316766
268.9120417
269.7037533
272.7216896
282.5920784
281.7366941
276.0039585
265.4021172
270.4179233
279.9067209
274.7665753
281.9016147
292.9478773
291.4634049
299.8016555
327.2623254
259.7476795
274.9875271
280.225149
274.3535449
268.4111964
283.5520491
284.9439306
276.6553207
278.5583526
284.069684
300.9773776
304.9656655
302.6452788
289.2567644
281.1619663
270.0169528
293.7426959
288.3314878
293.7047495
265.2354098
284.4725929
284.3758992
289.8516283
290.9287604
286.4893468
275.1180733
267.8358362
286.8826086
279.9640853
275.5494583
250.7236528
260.502244
280.2331962
282.9567191
283.2546868
287.3131747
287.1997433
263.4549433
264.5968441
275.2483944
288.4132504
302.543857
317.0979542
310.4673352
292.1521552
288.945317
306.077171
299.1861214
324.0846697
322.1070296
319.8078824
317.7645495
315.3017105
304.9737074
310.6831734
290.3367344
294.3764797
295.220598
298.9601105
300.6049194
299.8258024
302.5954316
295.6140483
298.5053702
308.4755877
317.6737576
318.2522472
301.0421434
307.4802352
301.1443406
326.9941642
334.9486436
319.2107917
319.70025
326.870884
338.4934544
336.1583312
326.194142
317.2660294
315.1356783
330.5057577
344.1113977
339.5977712
323.731579
311.1533534
308.2093191
305.1158613
311.5059902
301.8521676
295.0847557
293.8215597
298.2036757
295.2331109
308.3714049
294.8239034
284.2810142
286.0991275
288.3472394
303.7779839
322.9960781
287.5172965
279.0940633
286.7023747
296.3387369
291.4485971
284.5950994
273.8842656
266.351584
284.2339861
293.0034156
307.1011799
298.2771509
325.5946408
308.1687159
317.871855
309.0678132
293.5164598
294.9325023
280.4497323
288.2678189
271.4811958
267.9699443
276.4136352
266.3189246
275.7360909
277.8012262
297.0686145
301.746436
297.6417409
308.7810233
317.3164075
311.6382197
302.1519639
300.9588954
290.4334704
274.6749477
266.8025223
272.7525109
273.942996
270.9035887
313.8058576
308.1074014
317.9502649
319.1195441
320.883175
316.1584705
314.5750708
307.877778
315.2103394
326.8420777
331.8738847
320.6149217
309.8032908
302.7487149
298.3470141
313.0296236
311.1141298
323.4561684
323.5593501
321.2884337
323.5385015
326.7295176
313.6045317
321.9022254
316.7850761
302.0775692
304.497598
303.6507168
323.5849721
327.839676
323.4590604
306.2328979
287.6148491
313.7805712
319.2026507
301.4290789
299.1538067
301.4680219
299.2802523
312.4750424
307.0798787
304.8798541
313.9683332
290.4055523
288.5565293
299.390518
298.3844369
307.6984704
305.4094858
284.0965911
293.7265279
306.424265
309.0554181
307.2966699
306.0739978
321.3369468
311.9295117
314.3965134
312.2752821
304.8245787
312.6313687
310.6173861
316.8920887
313.1552035
317.7533383
314.1272265
299.2223574
291.5263993
292.2311235
278.9017175
288.2984629
290.0341358
304.6801425
321.5058151
324.6444951
341.3347577
339.8816067
326.3672753
337.0074911
310.3733247
334.3072171
320.8087053
306.0083726
299.0667367
315.4147157
315.2365442
308.803913
313.1572005
313.7179946
299.220611
309.0513125
313.1598801
315.7865842
315.1820905
307.5839558
305.4964336
314.3655623
339.9405407
334.8072488
346.2169634
295.6510245
291.6989983
294.7316326
297.1456317
301.1269045
295.925014
298.056135
287.2372105
289.1842431
295.2195802
306.2416826
295.2144291
306.1032748
289.7069073
293.3649036
300.7747952
299.0268039
309.2109483
297.0815812
321.5560926
290.205115
271.0080788
274.3721288
275.82072
288.9404471
286.1110071
303.2086642
304.6798388
298.4001658
292.9962557
292.784402
299.6657285
296.0471834
313.3113587
308.8364566
303.5899466
296.6898291
294.3966889
292.3320775
282.9436653
302.6560619
334.7968166
318.5557969
301.1510763
298.8966156
300.5299425
286.9161963
272.0784248
276.3410112
266.8725195
282.2919246
286.7548974
288.870503
309.744957
307.0000698
298.5488121
289.6142239
285.3451847
287.0021268
280.3547073
293.7358219
279.1018067
292.3294828
307.3557303
308.7851015
310.6114613
317.9932135
309.345101
297.6384821
299.8065087
304.2100908
307.4693455
291.5021835
273.3973146
269.3931296
260.4090901
270.5658982
285.2332026
278.9320056
287.439821
270.0508663
275.3575292
282.9246125
287.0394902
277.1710018
284.4375428
281.2765192
292.000232
300.7168992
309.1316759
311.4736881
317.7053881
297.1761652
289.1212454
298.4393857
292.308506
291.7612994
293.7448876
284.9262321
277.9095493
281.907138
287.8924215
288.9976438
295.8857133
305.1226596
315.374783
326.0598325
318.2072989
313.9126271
317.4558473
314.6803862
301.6227514
301.0908527
286.59752
293.1741561
282.0543782
279.8278555
287.4236924
285.8922123
283.7882986
316.7580401
298.7077641
299.512082
310.3368789
323.7427618
314.5796698
318.0379163
311.0071077
298.6036886
292.8033159
281.4046824
294.0773206
309.3551935
315.443851
313.5753487
295.4547564
288.6405615
294.0843677
310.9463443
318.577112
301.6343204
310.7851943
319.2843123
317.4498799
332.0805895
337.1598195
329.6608245
321.9092514
313.6743467
320.8914006
293.8906021
288.5987912
298.3529468
308.0887322
302.4812987
317.247702
322.9699179
330.6376807
309.2294651
313.3993211
312.9197644
321.7665528
298.0833652
297.5633344
297.2257251
289.9622003
300.8474568
315.3408797
303.4584405
307.781136
308.5284454
299.014865
285.2841357
281.9013827
284.0945439
281.3800749
290.6026272
303.8519205
316.7795329
310.5907943
277.5662436
288.9662112
281.4743169
285.6717809
283.0698977
292.0036123
290.7701031
302.9633077
298.9505598
298.8849123
295.7151713
298.8566638
299.1682435
289.5438749
303.8582404
299.9384766
310.6205773
282.7987257
270.5837507
283.3373544
287.8493513
295.9624086
328.4948906
314.3383821
326.3157925
324.9040154
301.4944684
312.34751
309.9440259
293.1877823
289.9525072
287.5237996
282.2421235
285.8732901
280.1680684
285.129113
291.7464621
302.6009168
282.3536763
284.694484
315.9405327
304.6717055
275.9862393
280.9051016
278.5331612
296.3459135
294.9787144
301.9659052
297.9611582
297.172439
294.3474454
304.5231568
307.0027853
312.0739494
318.0802906
301.6022265
292.7588418
288.2234517
294.856982
307.8800415
276.6650584
281.4158254
291.4056601
317.2195365
316.2617252
319.6242569
320.5017529
310.8959826
299.4767348
288.4008272
280.8979204
280.7638745
277.2597348
277.1869965
276.4354355
291.3484111
300.6199909
314.009944
306.5846204
296.5353984
286.3430669
290.7287848
286.0987576
280.0931381
276.0649833
283.2910854
291.2262299
286.5699379
291.2736617
306.9671891
331.1586275
317.7405758
303.3505782
306.5585052
301.3593182
293.116053
298.3376025
299.1629392
293.2364023
293.9964653
295.6841655
296.583397
264.1186604
272.355261
255.2876032
270.4236147
291.8346308
289.2826638
295.4731257
304.8280588
286.2962733
284.2007311
278.0953676
291.3056779
298.2868099
287.3164404
279.4825297
274.7555511
281.0881734
294.8538586
301.9297988
318.1963688
313.0880225
309.566336
301.719309
294.7161494
301.1327198
302.8425839
299.5669003
302.0426289
305.484274
312.6745518
309.0455395
301.2906151
311.9367542
299.5758902
303.1182905
300.7183048
299.202664
300.1476391
304.5149418
289.4506834
295.6026574
305.9599709
304.9298255
303.2929058
297.1961385
301.5240804
286.5426083
272.7502177
269.5614006
284.4983913
274.4507315
291.8028631
282.9210741
288.8540896
299.3133136
320.5546213
309.7744071
304.4863654
287.589431
286.2469389
285.0041353
292.8924734
304.5159931
291.8446928
281.3145748
298.7223936
300.1894352
321.0649209
322.2368996
307.4272597
296.8911336
295.5755792
308.2143688
317.8122445
306.5047411
293.1599138
283.492291
286.4928584
264.5264703
264.4709832
278.6569948
288.1885224
280.9891192
297.6456338
288.3927026
297.4285453
283.9000586
272.0905335
279.3770549
293.5978065
289.9775838
288.3664562
288.5452782
291.7409779
281.5217
269.5278944
262.9646287
269.3629164
293.5605522
284.0003049
281.4414089
294.0683809
284.6257447
285.0000899
291.0871614
297.4982893
320.7522006
316.4080913
290.5878678
287.4555253
294.4005626
297.1720177
307.661129
293.221382
312.9818863
310.5479109
301.3523316
290.4309761
302.4938512
312.8971417
316.8137587
314.7887716
321.7741786
315.3472754
291.9312156
292.7840981
296.3171765
300.4464705
279.595288
285.680393
300.8282551
302.5263948
316.9450885
300.0401716
292.0131341
302.0880947
318.170783
323.7602058
348.4922786
342.5000803
343.5994707
324.0368392
302.9018096
308.4917369
300.8608134
298.3224622
304.5672858
303.7111068
308.48304
294.3583428
292.4279546
284.5782848
275.5555034
267.2824916
287.2554261
283.1629015
302.507737
316.5519891
289.0936205
291.5228526
296.8223937
301.8189862
295.8790052
294.6721631
305.7890463
303.0211926
289.615059
282.7136924
288.5524371
286.5176593
291.7403605
288.6220149
286.8582127
299.807376
306.0981565
303.1855706
297.7066823
287.7546379
306.3574739
300.8525348
287.3601674
286.386401
290.0035866
295.4385651
307.0380716
309.244562
301.8166773
314.2141951
310.0188372
310.5365231
293.3188629
300.6511241
294.4764424
284.1424905
288.1504571
284.2063025
301.939798
298.8666204
302.7228286
281.7453284
294.2128355
296.1210651
289.9361414
297.4460251
300.9728383
319.5502893
316.771319
309.1685498
319.2761901
307.6883659
311.0355974
320.2109358
318.1360427
303.1797255
295.1760733
309.0393508
289.3565983
293.7229271
299.9800332
283.0276409
286.631807
278.7858084
288.9237536
292.8219526
286.5745707
277.7701669
284.4675892
295.9195854
287.2003395
296.6039827
288.4135395
296.8395542
293.824373
287.8496305
282.0777631
290.6282422
301.1145604
292.0621118
307.7977529
304.5876231
305.3702341
292.5974806
295.2696483
304.6593332
306.4388412
294.5638465
308.0008971
306.9936791
318.7911627
327.8087515
321.3672554
318.1990963
327.0116977
317.7490316
319.9707733
303.2959278
307.4103642
313.9689797
278.9120105
278.0915304
284.7354881
284.6341364
281.7372494
290.3373443
299.7106678
284.0165067
285.8318511
285.9897029
278.4042352
293.274291
303.9343961
285.955502
281.9980312
287.5921508
302.813599
310.8102578
313.7472627
288.6855822
281.6195797
274.2395596
263.6430244
262.2938861
276.6915977
261.8894129
261.2772625
283.1317596
282.994818
277.2213983
275.0808912
270.784289
274.5690512
274.8872891
284.0075127
290.0754957
288.4592575
276.7766637
283.5493881
286.5341814
306.2866661
309.3460132
312.1862329
313.5395641
298.3701185
296.0639212
291.4772062
285.2145935
281.854663
286.3583742
288.7828278
292.2638558
283.4257585
292.2972446
281.734372
292.6819465
295.9534352
305.4144501
306.0335536
304.3771225
306.7436167
314.1338684
326.0224882
327.8806159
328.2785918
312.1852469
293.2660844
304.2833611
309.0121871
317.5640674
300.8376237
310.9258702
305.7626526
297.0253919
297.3807617
280.9671921
295.9380393
303.9985798
299.0928747
291.0515573
300.9674847
312.4618281
295.9600926
303.3635944
309.2508225
309.9680933
312.3185669
296.4971836
294.7254823
304.9113725
317.8446912
328.2341531
314.6764752
319.9901918
295.8400385
285.8134977
275.4628808
272.6629781
272.390352
279.2743848
284.0173594
292.5082465
277.1532136
292.1888158
281.5657431
286.1329337
286.3240436
300.4909841
296.1438833
304.6597333
306.4739014
301.9582834
292.5577559
300.1669726
301.4873273
296.5062146
287.2931695
264.6624736
275.877868
289.9969498
301.1323494
291.8072056
296.9145233
310.5226071
326.2762932
319.326139
325.9325618
337.5168535
303.4159341
284.6458615
279.2180889
286.7926834
284.2197895
283.8019898
273.5764686
272.10379
268.6566797
282.7328301
278.0241246
287.0308035
275.8703149
278.6403877
293.4170661
284.9774702
285.6660005
285.0770309
286.8946601
284.051976
285.5855859
306.1826202
292.8958749
297.9525318
294.9038522
287.871108
282.1630689
278.2726714
275.5697407
265.0518133
265.4521686
261.5918462
298.3517036
297.1500546
294.3624603
278.2507311
293.7598367
306.1990338
293.9505861
295.9117467
311.5283202
316.2029974
320.2099914
314.1814299
305.1198534
310.0179263
304.9405257
305.1690136
311.8809182
309.0583006
305.8371914
292.6381676
318.7693373
310.4201378
307.859835
302.1510477
278.0906265
278.123475
299.2739348
296.1604829
303.8957464
297.4655908
299.3806062
283.5112913
283.6108585
300.7105694
289.256736
292.2352465
275.2416721
275.3915066
296.1633165
310.2671395
297.0768988
299.6495203
293.9573016
294.7602671
301.9316775
302.908284
324.3831108
333.7844958
315.7503355
305.0783148
313.4978087
326.7874573
326.8029857
312.2189305
326.7932953
333.9606244
326.6074622
316.1493906
290.81102
289.2797212
280.3305038
271.0606294
287.8547301
287.1226793
282.2239334
270.3859056
270.2294485
276.4857398
303.0905271
318.1588235
324.2458888
326.5494104
320.5362085
317.1286075
295.9669899
303.2024518
295.7676477
308.5376476
295.5971807
298.7782182
282.243705
282.4035053
273.1305366
294.0315931
287.456962
282.0049796
272.8940501
281.4931473
278.9176796
277.0669666
278.9987497
281.5239822
287.7666619
297.4174864
294.1078675
290.9373978
298.2241001
282.3086442
267.3144074
270.0703701
285.659567
313.6493498
316.3195512
287.9322643
304.0579186
309.0502
296.4274655
284.7410022
278.3952611
282.9767734
274.2416062
281.3580356
284.8359762
274.8777809
275.3952042
282.8595647
291.768709
293.9096089
298.6180235
298.6223673
289.6149902
285.293365
293.330634
306.6132247
304.6251317
295.6624061
305.5684227
297.5176329
284.3138695
281.3510898
296.2724327
304.9146269
326.0852587
323.3620595
315.9266795
295.4329091
289.083781
287.1125153
287.9159281
288.9786401
297.6405587
295.5841959
279.2029086
279.0801065
283.7231672
272.2282818
281.326051
282.487042
292.2573568
289.5536913
295.379271
290.5311443
277.0355247
290.7940599
305.6541601
313.2536541
304.9862372
303.3634636
295.1042333
291.3233405
306.3058673
302.1902199
290.3088287
296.626006
309.0486608
304.8156513
299.4738524
305.1628471
298.786082
296.7636538
297.3973807
297.6233398
302.2836826
316.3681203
302.5677242
299.0052602
302.8116968
301.6516197
301.7510723
302.1465645
309.8523419
301.0467657
296.2227893
288.7071678
286.216772
289.7796976
293.5792866
282.517029
291.9281564
293.0093367
289.8840779
274.7706107
277.6022464
288.6809934
302.6497702
300.7726818
295.0496103
295.0763229
303.1383465
305.2403697
296.5057496
307.695903
304.4017443
298.1712461
298.2644723
283.1363876
282.8492544
283.2260219
304.2805481
300.5949956
298.5005033
323.5063308
341.2425908
348.3318109
324.7321054
294.7039984
298.5317516
295.1236992
301.0648387
300.3333609
289.4196264
301.99642
300.8127874
309.9615282
311.2195171
323.0416858
311.1028542
322.460437
310.3234842
306.4891439
312.3909092
313.9593792
308.3674755
299.3750978
309.1755428
312.0325842
296.6346993
292.4190223
296.8347988
297.5077193
298.1782234
312.4397302
322.0512296
305.4041895
319.8564292
302.2621999
312.5627072
301.9133231
304.733128
312.1652557
301.6564618
298.3609384
284.3400936
290.714704
295.4733544
301.8031166
296.9736336
299.3260593
295.0045188
304.488419
302.2005729
318.9337039
321.9070333
316.3917146
308.28304
314.0345326
306.8141541
292.7825316
291.2179267
273.0456556
278.6447454
288.6684293
294.5535754
301.0375051
313.534583
312.3229158
301.5529883
302.3827907
301.8544213
300.0460112
312.8688613
312.4893267
296.0552109
300.5118527
294.6638752
306.7217227
289.5670405
287.377153
308.2048059
306.7105014
317.5128253
308.3923609
311.3583784
295.0261502
302.2385766
291.1772963
297.8061398
314.9758347
296.5189145
297.0049859
306.5349762
292.6848555
300.2797973
314.0835535
319.598847
307.1175154
321.6293959
306.8969037
304.3311319
298.4489812
295.9274223
285.297653
287.6530311
279.1944301
285.7478425
286.0797716
280.0826126
300.2284802
306.1784122
321.9892679
279.9774376
297.81494
289.8751877
296.9692702
293.7647245
290.7471931
288.3315346
289.5881059
303.4299334
306.6478034
313.0921667
310.1258112
309.2373403
321.5664647
322.1227607
316.436848
308.6105615
301.2714521
303.0400602
287.388541
300.6076808
288.984373
292.0369465
290.4628109
299.6428957
299.0440895
296.7959989
289.3594474
286.2474718
305.1374003
310.6710398
310.4590687
314.4084985
297.7213436
282.8756292
283.7003281
278.7791524
281.3297044
289.1715401
295.3476203
285.0460336
279.3610896
296.2767922
269.4275943
275.4208162
280.1847804
278.0135666
285.4876428
291.4324649
310.6862213
314.3765167
318.9441913
323.5561204
310.4593389
309.3880859
294.5524069
299.4418033
303.4902508
299.4887018
297.5831316
320.2283452
304.6278282
309.2489566
311.9488476
304.0019377
302.6832776
299.9207661
302.6263254
294.6585379
279.7272451
282.2907072
281.3018616
283.1857911
296.6329398
312.799258
313.3004396
328.4676995
318.3116441
311.6400782
314.9759145
277.6989506
288.077791
291.7348461
286.0785147
292.3346992
280.119357
289.2180399
297.8149136
311.5692714
297.6529705
299.2908444
301.4618271
300.2128879
283.1786195
288.1028459
292.4205089
285.0558851
290.118307
280.8274982
279.8741666
325.7380802
341.5861569
323.9555507
312.3050794
301.8871943
297.8019365
299.1474941
289.5626544
299.4063517
308.723247
304.9189058
307.1454713
288.264959
294.6904944
289.3846561
296.5963406
293.280091
297.1536108
300.3766511
325.476167
284.8126586
298.4530451
292.8106919
291.5472962
296.3388761
295.5978967
299.0188834
299.9813619
292.9242238
301.237938
291.2114154
300.4385215
300.968216
290.2880535
298.5184334
282.5271142
271.618405
282.8779625
291.6199582
291.2934395
301.0974261
294.583812
319.1436988
327.402307
300.7998348
297.8181533
283.9179125
285.657996
295.642016
302.1659011
300.4363623
296.8811512
288.8685891
272.2661928
279.1665778
293.7296447
290.3767698
276.7236037
281.0070098
285.9331481
277.8476003
286.082892
288.4631658
295.289636
300.2827128
291.8756024
291.1186873
289.9723822
309.2858087
299.4194431
305.9788958
313.9205954
315.2727066
307.6150604
299.3887993
285.4945723
293.0255358
293.0671826
288.2881262
285.7220353
310.2027447
323.251799
323.2664348
335.2048262
319.5338642
315.7570293
302.6633476
311.2794028
310.7313945
305.4766487
304.5964083
305.0459198
303.6944807
308.2778413
306.7106097
318.7666297
318.2899862
329.2310709
331.0696914
318.9507553
292.691732
288.418021
298.1650384
303.3461164
308.0780026
303.7310414
311.4260577
307.0635765
310.1983149
307.1873183
306.9914912
291.3550954
282.1748928
299.0999014
315.9584959
335.8715593
344.2008639
345.9939564
319.3094392
308.6657113
299.0999045
301.6600682
294.6111863
293.8623881
298.7721584
307.4842278
296.5074349
305.3103054
292.2910218
285.2612839
297.782479
318.7919472
309.8324324
312.3673005
309.7639804
308.0426444
301.6421974
299.4623392
300.1149764
298.9525647
326.5905544
313.2363842
305.4048877
299.2011433
299.1812105
311.0985825
316.0165227
318.2699418
314.5356089
314.5976753
300.761899
298.3089445
302.9668705
303.6787296
300.6072598
316.7378813
308.0686679
305.8075407
314.7762372
313.9645315
323.4226471
321.5167668
313.1725287
308.5010241
310.9867741
315.1601238
322.1490323
312.2821096
310.4880253
310.0718031
306.3966522
294.7304517
291.8789144
285.9245076
307.6442524
313.1129471
317.1476511
318.0260741
326.5098764
336.131619
299.1890155
319.5777381
322.8194037
311.939769
318.086249
305.1542788
302.0724514
311.2491869
311.8458601
307.6323476
309.0008111
329.8660072
324.1068262
328.1868772
316.3280748
313.562527
318.96033
317.3315527
307.3637138
300.5539578
299.7175154
309.3945113
310.6884186
296.3201287
297.2840071
301.7392811
313.6359863
312.7876054
302.9876902
307.2496114
309.8207046
306.187138
298.7503117
301.666601
307.2446289
309.9051312
304.9805297
296.7584515
306.5867613
303.3359563
293.1061575
274.9982953
267.572077
271.9352973
274.1644167
279.0286318
276.2550461
283.913108
307.6596744
307.2102127
301.3304238
298.1932203
293.472374
295.9978143
310.2833844
326.7672002
321.3474773
330.0673472
313.8326048
302.793889
300.5952925
313.4442812
321.6274688
324.4449573
310.8564762
305.7062023
299.2342859
303.4475609
292.2809883
279.3343243
285.3145901
283.1806861
295.1955286
304.384413
301.009598
306.1989159
293.9627304
282.5316013
280.523297
286.761085
284.2089921
275.8315672
281.6473887
292.1301324
308.9622559
315.2636014
307.8089766
303.8183448
303.5328987
310.4759377
294.152585
278.6240382
296.0854508
299.0061753
295.0473825
302.6589079
302.0036284
304.7909074
302.2772135
298.1744828
309.469987
315.79644
319.160479
302.2242156
296.9509786
298.8214458
289.4813954
283.2030758
275.3786135
285.7305053
304.261212
317.865518
306.8171186
315.2130031
304.5126809
300.1769844
295.5220734
290.64455
299.1017308
306.4722424
298.9171543
294.4909733
284.5369564
266.9443345
276.3738091
281.7185374
275.4463383
281.4746516
300.217049
295.0159117
306.5280507
323.079922
323.2332993
314.7873904
318.480968
310.437702
315.1728058
319.6985052
294.1429108
285.9643747
278.8709043
263.6134929
278.4745521
296.3299153
303.8096832
287.2682174
297.873674
289.4005361
263.2090517
252.7017727
253.6210303
267.4796599
287.8937082
300.420203
285.5647253
280.9947895
276.3339434
267.0536674
270.4277041
276.3217417
297.9336516
306.0926876
301.4158686
296.2772308
286.1261571
298.8403021
308.054423
296.0437292
297.2005876
294.0410569
297.4757125
290.9785036
289.4861952
280.4356044
288.5958396
297.4264398
311.1379318
305.4726121
305.6328125
286.4650086
309.3820739
315.7979296
312.5783474
314.0537057
324.5350235
305.6291455
294.3714952
296.4509313
286.9028019
292.8589294
301.246319
311.464107
304.5079254
283.1452257
293.6516683
282.5184928
295.4449386
311.9205149
311.9038212
294.9227532
312.9516615
311.464079
315.5986334
324.838614
331.869412
349.6669345
352.143776
354.7906331
340.0344617
327.0689429
304.3470837
298.1703711
297.7483758
303.6787597
296.3480001
286.4220793
280.3900956
276.504973
285.7725939
305.5533092
344.1809956
327.6748968
338.5573662
333.0145519
326.1802585
313.132675
313.3926097
316.7512346
316.738435
323.4610534
322.4595014
318.2625496
319.5702519
327.7790173
315.4718318
317.7237354
324.9554739
329.3127876
320.4336157
328.6628761
307.6205294
308.9997793
299.5844731
306.8035762
307.6062102
306.0369318
311.8679339
306.2795054
298.4957325
288.4661136
293.260506
304.7137714
313.9420184
315.1748906
306.4039747
301.01598
291.4603325
293.3102655
294.820444
307.1842509
301.486034
306.2559535
329.30122
318.7405942
310.8908813
305.2540458
305.3216773
310.6157651
327.9160235
327.6327369
317.8345062
317.0831761
312.7600654
316.1662709
297.839222
307.537059
306.8755252
325.0846208
304.958754
304.5304504
331.387722
316.8907233
304.0094052
297.2507936
311.6246523
305.8617436
302.9664908
308.0749668
309.3381267
333.2137558
331.4920695
338.2305987
346.8763657
343.1981539
344.1947986
314.1335963
309.7744909
322.4650738
328.1865919
323.9717692
291.7874777
286.9808906
303.4865832
309.4366004
313.6610434
298.0141828
293.0089828
290.6281843
282.9824179
264.9138731
289.7722712
312.376964
316.8234626
326.8450219
299.1587709
302.3562882
304.3672581
293.1988998
296.2009139
292.0184642
278.6731206
272.5884786
293.9878235
303.4072812
304.7465648
304.9725283
306.5869176
304.9201928
308.1863828
310.3224336
316.6002488
306.3326409
303.4489465
292.8529768
309.2546439
303.3791635
308.0192831
305.8503368
284.479444
295.0516927
324.0394452
315.3624789
310.9432039
313.926804
305.7691801
298.92113
299.0799577
311.3209524
312.700613
315.608456
315.8899126
326.0236387
321.2293417
318.3635245
326.076036
306.73524
291.774058
304.8620145
322.3926115
324.4621118
282.1838522
284.8611599
280.9130935
290.7723591
297.1155326
294.4092249
286.7121431
290.460909
274.9112951
271.9489406
275.2704105
283.3392197
292.6838167
283.9725766
295.665947
291.0423746
281.6971353
288.1250706
272.9377502
286.1354391
297.2366418
303.1540549
302.6086563
315.833434
312.6444219
313.7059925
309.4443784
310.4918155
316.5801517
309.6124342
309.7386594
301.3221531
292.928164
291.1334348
284.4173702
279.2530347
286.2546595
281.451055
303.3408272
296.5912581
306.2186169
305.3442163
308.6378415
308.133935
294.9108336
290.9393905
301.9133796
296.6593574
301.0202811
314.0402518
304.3036552
294.5605642
282.2115693
283.8574162
300.6281491
292.5545547
286.4182942
286.5099544
289.9321813
299.8761146
293.4667131
295.8349235
291.1321022
291.2455208
284.9533084
297.7672104
294.5367306
297.1138241
300.6096134
274.0350638
290.9049249
294.4541025
293.3650053
294.8904312
295.2801878
296.1444886
296.7550648
291.1580637
284.5255242
291.409929
291.4862849
286.5866229
289.5081104
301.2335457
299.1812322
306.9778109
312.6077675
299.7638413
298.3299098
320.3728684
308.4345075
293.4005682
286.3835242
288.9138783
275.5526172
272.4739967
279.4247971
278.8190601
292.3694756
291.7141023
273.251084
270.1970899
282.3055821
294.2958608
275.7745396
283.1668328
292.2533265
282.2292326
281.9743257
273.7118491
269.7580775
249.0201155
265.520963
268.4888763
273.8348415
280.9680284
288.8005327
277.656842
269.618109
270.6163917
281.3912773
277.3465052
281.0391658
299.5194296
286.8733025
277.1756456
288.2514953
294.1131994
323.9470695
321.146379
318.2331645
314.3163047
303.8219375
309.9512277
297.5048657
297.1744211
292.3077743
314.0787919
303.7012806
291.2633689
306.3802589
299.0251201
295.2904105
286.9105953
278.2473991
293.0809612
304.8228975
287.9982308
284.3885802
288.8679089