/*--------------------------------*- C++ -*----------------------------------*\
| =========                 |                                                 |
| \\      /  F ield         | OpenFOAM: The Open Source CFD Toolbox           |
|  \\    /   O peration     | Version:  2.4.0-MNF                             |
|   \\  /    A nd           | Web:      www.OpenFOAM.org                      |
|    \\/     M anipulation  |                                                 |
\*---------------------------------------------------------------------------*/
FoamFile
{
    version     2.0;
    format      ascii;
    class       volScalarField;
    location    "0.0006";
    object      translationalT_O2;
}
// * * * * * * * * * * * * * * * * * * * * * * * * * * * * * * * * * * * * * //

dimensions      [0 0 0 1 0 0 0];

internalField   nonuniform List<scalar> 
5120
(
306.4264417
328.3716017
343.7253943
332.2088234
317.9723948
349.6211727
335.1550825
368.6024393
353.4755486
329.4909307
317.4251562
273.7062382
268.5578876
259.0675597
286.4450159
263.1376642
259.1998534
264.3940534
271.9779322
269.3979858
274.0164188
264.631495
279.3427162
291.5175574
299.013073
284.5517117
300.493227
245.4401889
269.6707527
265.8486232
273.1846933
293.9620312
286.0084429
338.1866153
307.9646362
305.2301595
322.0348425
320.1336026
336.1015262
326.1263036
334.2879629
314.3401321
291.028535
293.0354389
296.2403317
324.9928954
293.7358603
311.039501
309.3916001
301.9736464
339.8183606
332.2890598
324.1886291
288.1796026
314.141027
318.9068702
318.9827604
329.842194
343.0292546
321.9195848
316.2263535
352.3626706
325.6745307
310.0693469
306.5478411
282.8443207
267.3692846
284.3329803
314.3357284
327.9569397
298.6520366
317.0331044
331.2850978
359.4687754
335.7810692
328.1384558
319.0133086
304.894844
322.1885582
315.8786483
288.4673919
293.6434687
324.1931522
338.3695558
318.7366491
299.288366
294.5531819
295.2606315
301.838353
297.3936385
306.8987927
319.3570516
325.0551189
302.936342
272.2096293
253.524721
266.1968384
291.5730414
300.7343002
279.471819
324.9298048
286.9817388
283.9048981
275.2806657
272.47487
292.8676748
307.8380305
315.7188594
340.2651955
304.4741825
274.3730652
269.7365164
278.639755
288.6981653
294.5825248
301.6676394
326.3840389
325.9158153
291.3193356
321.4567954
322.6832382
314.1002375
286.3312614
303.852664
337.5015942
310.1360888
326.8847744
306.9850177
314.6602476
307.4091886
321.8063268
310.087867
307.1335692
286.8077165
293.4128152
304.8338815
295.2187946
303.0116448
337.4609562
292.3777604
264.0412964
275.4826035
296.1480869
313.3192769
308.7860488
307.3500354
301.3346801
289.8266499
307.3681439
337.8926605
323.795325
318.0657272
322.4606739
306.8269243
299.1657877
285.4494177
280.5673972
273.0091707
280.9240234
280.394409
331.7360233
319.6845853
311.8340432
267.8288832
252.1809301
245.7674867
245.5511102
255.2109148
271.1059354
257.5977242
243.6325203
250.5096522
305.0470457
357.72161
352.7910208
307.3959498
291.8138768
289.8424871
280.7499409
309.832462
271.6061499
286.9041374
281.5130779
318.9460172
348.1587043
322.0962112
319.2146217
270.8918217
266.4360326
279.3217632
310.9593264
294.9234489
281.0135404
273.1158398
315.5967755
329.6375711
299.2791077
281.8572512
322.4185325
321.1849075
290.4098443
296.9461152
266.0199663
258.7793033
290.3822508
347.6996898
345.7534234
345.9303205
316.8381597
329.3733248
317.2017038
321.8618359
308.5600855
299.9708221
314.3892272
315.4426853
317.6565306
333.3584844
305.9269915
273.4274274
282.1272175
309.3967522
337.3010821
308.5087761
315.0668234
329.4959804
306.7961871
319.2954982
308.127293
308.7875332
297.9001501
273.5350467
300.3637834
284.5940606
273.8074646
289.5206082
286.1597498
282.921518
286.3927318
293.1773708
317.6475874
300.2319208
309.5159503
301.3082868
285.6066467
304.9018313
311.6910659
309.0846057
287.5185395
275.3920285
283.2269043
300.1437289
297.0955406
292.7478141
317.5647491
311.7085393
287.0511357
285.0102398
301.992385
304.9275133
300.5335539
296.4286829
312.7200638
323.0086268
332.7934007
306.1556193
282.6539611
278.9998772
290.7601869
291.6659973
281.4232558
286.1980534
292.2580435
286.4875471
286.0931753
298.1679788
313.1230381
323.6775008
319.48333
312.1914558
285.8212489
306.56235
283.8122891
310.5967326
312.605179
297.8103164
318.1484499
334.1340834
329.7581985
316.3087223
295.3940761
300.7126398
327.3558316
331.6274182
313.0994453
339.1075387
368.1841101
351.9848663
287.8386828
294.5308252
334.0035879
332.8332804
331.3121578
320.0077107
302.8185961
295.4846493
291.3712067
286.4028593
309.6359907
330.6441822
332.6514673
328.3052042
328.7611858
304.6808579
297.7507567
281.0051819
273.3913127
272.7435033
313.2161812
341.6513143
326.3137528
314.3776382
318.7490679
298.6033002
336.139717
353.9344132
346.5858038
353.0538184
321.7811197
298.6932974
297.3985858
314.8595945
322.3143637
319.5901957
323.8672981
296.6699874
286.5661687
285.8798907
284.70511
297.4029397
294.5149396
293.8129103
303.0973577
331.5163427
305.86441
323.1876593
342.1826553
321.5593737
322.9776843
312.9191947
302.5815628
304.3019581
274.1341492
295.2522166
335.6486818
355.1701272
336.8222461
308.7162722
301.1243713
294.4070163
296.0587797
304.4011733
300.376043
305.0411872
296.0295544
304.3031672
308.7980233
313.8360972
304.0784049
309.0241552
288.6240068
284.99795
298.4279741
315.2346062
308.5877283
296.0237687
281.5831706
282.909404
277.2147809
287.2738953
309.1528854
313.1327249
340.5928647
313.0449229
309.4477643
329.2076705
310.1487638
289.951069
257.9747966
266.0964925
269.7695553
274.9309268
289.2952776
288.7286435
279.7213561
283.7506785
314.6217299
305.8217814
285.1576077
286.2446072
264.1296214
258.4654597
307.5900001
302.3625827
274.9448866
256.6298516
245.6629079
259.4295015
268.2012916
274.7167593
272.8972221
281.054134
312.3858424
276.4806352
264.5083408
249.0444565
259.2085913
284.9817179
299.0099389
315.6123828
317.8085637
343.0818494
307.2160662
279.8226306
270.9767744
273.2478611
260.3667237
273.8362629
289.7123407
268.2341475
303.6586918
299.2398142
294.0784391
275.6917393
280.9487672
296.2353338
303.8711751
296.7942182
293.3477622
306.9517682
299.0499553
304.0844596
307.75991
299.4128671
290.9360405
307.9370972
315.2476865
308.6834099
297.7259284
291.697327
264.2998501
267.8659678
310.2621883
269.7989849
257.527739
262.5478918
253.5754106
263.27239
266.5093639
285.1741137
273.9645221
322.0629406
313.8652966
310.217499
321.647508
330.5640894
323.1669634
315.3194688
330.7739312
302.1879246
311.5259463
301.4177254
255.0011442
291.5012485
276.6849923
283.6987102
283.5350743
272.1321252
266.8745897
238.5467148
304.8933002
317.8724808
327.5278663
299.2120209
296.1135189
299.9656026
304.5992897
327.9001596
301.8287028
298.4499448
319.019099
342.4581841
367.9300817
325.2657921
316.9067611
307.384258
298.5338314
285.721646
286.846315
309.9305719
284.0096176
294.0201258
279.6440996
282.4341377
275.8521252
300.5627837
277.0245008
287.4383079
286.3261568
287.8212357
265.2133835
269.1536418
278.6755375
265.5727188
242.9741101
282.0540709
296.440301
312.5391358
303.7340421
273.7323199
325.1282884
336.6766396
348.6016797
325.9206351
308.0120824
291.1626047
303.4445541
320.3959384
335.9624329
296.7291848
315.9417177
312.8354285
329.4677722
307.4146936
332.691937
316.3284387
290.5734736
263.4781046
262.8458793
302.1616953
262.6961344
275.2846606
323.3630257
319.2404314
320.439729
333.4010445
321.4077805
321.2231265
336.9517648
336.8963948
336.108687
332.635583
308.7614799
293.4200453
297.2843498
329.1941738
332.4625155
295.1692117
291.0569272
271.4699731
303.2142408
322.1298485
303.1742156
325.9602867
322.3195867
319.6718618
324.2491246
279.9171113
275.8106856
270.4531005
283.7838833
288.6157626
288.8492507
270.9533616
284.5998874
288.9217995
294.9774478
340.6566819
318.2800474
321.1324366
327.3832144
318.12789
314.5113323
322.5881593
319.7382591
296.4237086
287.6103101
302.2738708
316.970656
320.8856562
327.7308737
301.5432664
295.9225748
312.2347077
297.5003945
275.5175557
285.9557967
287.3477611
302.7925769
321.1119785
318.8122126
288.1540077
292.802797
306.6566521
324.0118709
338.4224648
329.3118081
312.1437259
304.5588744
261.9611961
285.9506074
343.2822115
314.0266661
296.3949341
279.4479943
300.300427
292.2124272
337.3205237
335.5459427
282.1513954
316.7865493
342.1075805
352.2862331
350.8228278
350.7936893
317.9015608
327.6792646
293.9325007
299.6133265
305.6466066
313.7459752
294.2386375
281.4143447
289.0305185
301.1930066
311.676735
336.0833584
310.3807584
316.7160998
324.9420926
284.4405419
292.192723
312.8516842
304.5327522
282.2363999
298.636537
295.5704292
299.9552881
290.3519561
310.0244363
306.6777597
303.0841872
331.4899896
341.6644607
323.9802459
294.8546533
292.9635677
303.8876804
326.5733981
300.8995808
312.6130311
299.7539762
283.892245
259.3440103
319.3956372
314.6881827
300.1637791
301.083814
296.1934103
285.3276203
286.9999978
308.7082371
309.9698865
303.4930081
291.1486596
259.9097623
277.4775714
286.9373696
289.1438474
298.5733931
271.3697481
264.5090559
257.8480189
274.0863312
267.9283768
287.4584439
290.2319959
258.4528328
269.6173131
296.2951169
259.9385223
249.4662768
263.7670854
267.0395299
275.9509644
289.5082006
287.3662425
266.1477258
264.8798138
272.7537365
293.7542575
286.694522
303.7557744
278.8582814
286.4104307
285.3666027
283.2583012
293.6057046
309.3392935
287.8067487
279.384348
270.2018051
299.5772323
314.1092067
295.4654622
305.0017084
285.886318
272.2084431
295.2218462
285.3247373
290.2094951
292.8614316
292.0969725
306.7238123
302.7877441
318.0162961
311.9011214
273.6813258
297.0000364
290.484245
302.3435255
301.5164156
281.458486
283.5792815
276.3323778
294.9344745
308.4653131
300.1479903
262.140556
293.9784222
309.6220101
288.842005
270.5235616
288.3939289
287.4212913
268.3040122
275.9192155
288.484549
277.1239787
278.9965445
288.0300735
318.5017749
332.5590515
334.805341
350.8016582
334.1338802
332.21435
320.0658711
317.824288
305.388686
311.9081546
277.1997065
285.1362436
308.1398059
293.6426184
259.6426285
259.81263
241.0427899
255.8839409
255.2323504
272.9182496
273.8224643
287.5100386
316.4543872
302.0523937
290.2117708
291.4400806
303.7134258
309.417404
310.6894057
310.7471791
308.0722465
334.2354384
340.527115
321.4536793
320.4795607
316.9875631
298.3190073
326.8110228
330.7712471
302.6205528
297.9409079
303.8941959
283.5786838
276.1889458
292.4718513
326.7436077
334.7256225
307.7991802
300.223828
323.9280013
309.9302674
332.0904683
323.1216262
322.4419052
309.5922584
300.2048361
263.8154164
312.9234892
309.1641715
289.4927067
295.2995282
304.7283428
300.5739712
320.489775
295.9569142
286.5490019
317.9595977
333.6237113
324.8273515
330.248032
335.6568344
346.7716289
306.9329434
317.5048523
317.7797461
326.1309042
305.5084918
298.7989498
280.3082318
288.2023357
292.511994
289.7590031
300.8427671
306.2197047
305.4471102
323.4269029
328.1177377
331.7867914
325.0978296
284.9244692
298.9383324
324.0566498
332.4599257
371.8492009
336.1381957
342.5208949
330.5226887
324.5869863
320.5370398
291.3352468
314.3571453
311.3949512
312.9820355
311.1230826
312.4662084
298.0044569
295.7848834
291.0546072
277.7725872
306.5122092
306.4465077
284.3273563
298.0079759
300.2061708
298.2508193
310.4224129
290.3037249
286.3990413
298.3409494
313.5131021
306.6278355
303.4958199
303.4110423
268.2758557
305.0317528
301.7466604
283.7442382
284.6242301
298.8246713
304.2553556
296.3849073
298.5657303
270.0916892
281.8835178
298.1309273
260.4236515
268.8232962
254.6275424
259.3350039
266.8398818
303.9783235
312.7210686
332.4864437
302.9343534
297.7505548
313.0809372
343.6250685
327.6701789
312.0293213
304.868515
303.3705719
298.3939263
278.7037958
282.7911204
311.1258265
323.095803
319.1650536
299.0711013
307.3604059
332.2354024
288.4326635
275.4996402
271.4026876
282.7260212
297.4569006
272.1813711
278.8357315
312.4361344
316.396342
275.4358208
291.9485829
288.9978139
284.8241694
269.71854
269.2222866
261.3372648
276.9142273
308.7308436
317.0633293
304.6639306
322.986066
350.1477015
332.1898431
313.6905649
293.8102206
308.6600485
300.1061704
261.1031019
262.1786649
312.7506299
287.7542649
286.9582143
303.4417655
306.8869461
307.1464787
276.6879829
297.1600974
298.7528816
282.0008024
288.9333965
287.5923764
323.1940633
329.5571923
324.477989
334.5611731
310.7664844
305.8319482
295.9215793
299.2828813
365.15241
326.8791603
302.1374927
319.1242846
335.849279
311.1048956
306.0841496
315.8727869
311.7987034
323.7067623
288.0417752
303.5326623
324.7206946
295.1427272
305.7703092
278.8383275
287.8244557
304.5089284
302.9594376
327.8532823
255.3763188
251.8751149
264.5416251
279.1812989
265.77141
305.4023809
304.9109294
296.6783786
271.8556047
303.1748438
324.5597697
302.0938291
285.4573572
280.5248702
279.2808707
270.1187506
288.1271753
279.6867032
271.7440662
263.9715211
256.2489608
277.3457878
288.8200876
280.926008
272.351476
254.7880226
263.9181431
284.5676269
310.2073478
296.3620643
285.2850847
295.0602112
285.9988551
289.8380537
318.0784137
311.7736852
308.9903369
318.5052603
250.9472908
266.8537141
283.3637364
314.5039547
297.7346223
294.0269098
281.5383589
262.4317106
268.3812421
252.7555718
248.7019849
284.2652814
287.7891564
278.6776219
265.3870879
251.0487267
256.2083583
270.7889986
264.546829
286.9576968
286.3772059
288.0177082
303.4864356
287.8116052
258.9738887
256.0663119
254.3548147
274.5832182
287.9332479
297.9640029
322.5996124
286.0011726
311.2438453
297.5899927
276.6418344
299.9314289
316.7234948
292.5582028
286.1196088
270.759459
285.9379233
291.7148675
277.5084375
283.748387
283.758374
286.998368
288.2145347
306.8608123
349.053159
352.1582553
347.4163723
274.4984314
258.2319864
265.541924
300.1654363
323.3123975
291.1387247
331.3079764
326.5040187
302.4534065
298.6827417
280.233997
299.310865
308.6652592
307.9347866
304.1433942
319.2815728
345.5277719
310.4485167
293.6120963
258.0858223
293.6731674
321.1708505
304.3577298
264.8964636
282.1330995
302.1986173
312.616051
291.7106621
315.2681397
299.7144395
280.5802014
298.0399234
313.296763
283.1064475
291.2708679
285.2909067
283.0737903
318.3762226
294.9341375
302.657078
309.8192158
313.8401542
331.9821971
328.4034579
284.4615481
253.4917145
260.3504142
253.6252011
267.7170632
268.0975196
291.1708875
333.3820972
309.3183294
294.6607779
304.4662502
292.6841864
304.7417777
299.1203978
319.5042738
306.8868554
305.95089
291.1523011
276.8081299
288.8205356
286.9073872
325.2443632
297.0091137
289.2151283
311.9104846
314.4244541
308.89612
298.919238
324.8993848
333.2688449
330.2397687
321.2289645
300.3448883
298.2575761
306.5566374
309.383834
324.0374314
338.9214115
332.2527245
327.941249
313.624921
296.5233051
291.0381286
296.4304433
282.3866261
279.5283259
281.1279166
327.4843745
319.534618
264.4373162
278.0868293
287.8142853
336.2325003
336.4339873
343.9447347
346.6745878
329.0805539
319.1258531
310.9721869
327.6304109
330.3280625
288.1594157
269.2986088
258.7181439
271.9082279
286.8118097
315.3554092
272.0588369
275.5391882
292.6190153
293.5679345
292.9409783
295.5146507
295.729581
316.1223559
325.7438579
321.4739413
306.2173365
290.1501279
299.9949807
303.330463
334.1553655
308.0481258
283.2490108
321.9465081
319.690212
304.3048839
288.5139825
305.1419201
279.3375855
290.6864586
291.4065664
282.1412178
296.5060358
312.7736543
337.4020658
325.0212232
278.4534633
255.3456078
282.5367463
300.6908244
297.6105589
302.5802039
300.8312328
309.7473892
301.7363986
303.868066
330.9974797
364.5256156
335.2884045
308.0188697
267.0680135
264.594142
298.5797082
310.4282526
308.3613236
254.9335018
272.7024142
292.9375856
284.6118121
282.3903594
281.1922018
307.8557738
349.0677033
319.8813941
345.9356758
339.5993448
302.404576
283.4898176
247.8216329
248.826582
236.968886
231.0855285
231.3180994
243.7714566
278.8745316
321.5261677
328.6646665
322.8256438
306.7102719
334.0788863
314.7039719
307.4081754
290.9108189
316.6279743
310.9676323
297.1341308
320.4258353
357.3160048
349.2645889
329.4854497
294.6492857
278.5759897
307.8249287
265.8001144
266.2186754
280.0327366
286.3570227
292.2638266
275.6646305
270.4919646
283.7057099
275.7767314
278.3971878
301.550255
314.1392049
311.7229379
299.2118956
301.0172059
307.5973317
286.092251
249.8028427
261.5536945
281.4889942
280.8449273
292.1636222
294.0678226
310.4485686
294.6170537
299.9903962
304.9960359
301.7926611
305.662894
308.8364205
301.5875817
280.9027352
311.5655875
316.9070519
300.0437721
282.7427829
263.5748616
286.118287
281.0722953
264.9395628
285.4074654
289.5873019
273.0242484
281.9159323
298.1316329
302.0917126
259.4598859
283.7604579
287.8599696
299.8751475
297.3804504
329.2355113
322.2387506
315.4619347
293.3323829
299.4537894
299.8362473
271.3194778
281.1090326
296.5065121
295.6627358
277.8560675
261.0474967
297.4540144
292.4032352
307.2010665
304.1064288
277.2212859
269.3845695
314.7723707
329.4274626
347.0426223
326.0905002
296.0946636
296.3715703
301.906885
312.4895543
325.2382616
323.8091558
283.8852844
297.0037101
264.1495334
283.6587815
272.5644394
279.6201852
283.8357401
282.9941127
289.7871033
282.7634356
321.415508
330.0818606
294.0960492
290.0479176
295.6348468
303.2138479
309.9980541
316.1586298
327.5827896
365.2792198
346.4507793
328.4226466
321.8327915
283.3688553
260.469573
284.028608
274.9383339
274.3191844
261.7163261
299.7638621
281.7238665
282.3850528
303.9504793
310.2905745
309.3442987
296.9505343
293.3828765
332.489904
324.6832128
301.3053084
306.5338877
302.6468233
308.3098521
342.8691707
294.9338097
282.9552227
287.4909049
283.5213674
268.060061
238.880544
257.9583517
276.8795489
291.1316338
289.7377093
253.3611165
273.4695655
303.9301073
304.7694262
347.6159433
312.0049256
311.7321577
325.6550101
310.430096
300.6948324
339.3943214
338.0573759
303.8867328
308.8816511
293.9821168
262.7824483
272.2736378
287.0334256
288.0800449
287.3523204
299.980156
306.6366299
306.903865
286.6132781
295.0869354
298.384769
306.0115126
279.7267084
292.4680315
315.1509902
299.406822
291.836282
305.2553586
326.1843174
335.8308656
329.8091683
296.3767623
287.635128
294.8940033
307.6779268
250.731436
317.9741764
332.9206466
324.8929766
293.2970937
312.274586
303.2607767
316.2447975
328.7033341
311.2353942
306.8900487
322.8573048
312.9947866
283.3996914
263.7051411
273.7896251
323.161201
284.9724769
288.1855187
274.5950975
280.2287055
246.2760675
270.7994054
304.7788711
344.1464149
307.2412941
305.3818248
280.5784148
305.7255109
328.1278747
338.2285268
364.2970033
337.3596936
322.4694991
340.9504123
326.6064658
322.1226557
297.1313722
294.8043189
283.0903884
241.443104
273.0775786
265.8051234
278.7131938
291.6945154
307.4552168
337.2130481
326.0741263
316.0070015
286.2596848
296.524075
279.9059221
284.1396912
300.9269229
298.4896199
301.2140195
291.2280329
297.0938329
307.2271417
286.4522568
297.7514277
279.6536402
309.8533893
308.3293749
316.1267776
324.6855349
319.7861342
323.0706267
325.9220842
322.499592
307.6027721
308.7029204
309.7534775
309.6335267
333.0216346
332.0245875
312.8946413
312.7033309
279.7968373
290.103319
302.9950733
292.86386
281.8558929
291.3089342
297.6680491
298.6149832
288.9213488
291.5587958
280.8732986
278.4576465
240.4358745
260.8165359
291.0073306
315.1639019
299.1757022
335.3906952
342.8481423
339.0010717
298.0791865
306.6053969
321.7669469
285.4046849
311.4949438
322.9447129
322.2335982
330.8916855
317.7317045
315.2589246
286.1512086
298.4495283
293.9113019
299.3596976
290.8548247
266.1393697
296.6702257
287.9659664
307.9312626
313.0171021
324.6663499
346.6295939
289.0597567
269.9154158
272.8184225
292.331546
321.6782623
295.9730098
290.1918371
280.6747333
305.3830478
312.8699751
320.2505448
328.9736932
322.3671554
331.7431026
340.2931705
330.1965176
313.5114465
290.0045445
284.5511226
285.3758306
292.2949168
294.4090652
277.5116757
310.4071005
358.8706825
338.1524595
298.0670163
282.5736401
266.748744
271.0162422
249.7931712
289.0824976
284.2795053
262.3038985
286.1691558
313.2318345
275.607431
284.524224
309.8053492
287.1708247
317.683891
326.2924487
292.5286751
286.0900745
289.3700991
311.4674273
298.5858889
316.3599487
311.4141935
297.0016102
284.0836712
281.8501979
316.3154167
306.9235937
286.1959078
285.0964972
259.1745617
308.7042063
302.4429583
315.3516601
309.854104
283.7107806
300.3270019
299.3030386
276.9997544
281.0974989
276.5475188
276.413973
270.0113605
259.6212806
265.9940931
268.0236541
266.6001908
270.3227718
255.5243402
281.8738738
295.9966623
278.0580477
301.4451169
306.4530411
338.4362888
331.9080629
292.1799065
301.2732064
326.2866263
328.0496462
327.5359313
317.6654082
301.6422256
321.8673978
292.3123921
280.0820842
313.3333948
317.9389682
325.9301842
323.9719331
315.7109512
314.920443
337.4817879
348.0755006
306.682518
274.7252611
302.2399295
342.6223376
329.9081655
290.8812556
279.1825996
301.247986
336.274713
306.2126136
316.6391825
307.8246598
288.3863147
294.9254447
293.843901
298.1352206
335.4250167
356.1221085
348.1532514
324.3579646
274.9994252
300.4180054
327.0109609
293.6551908
279.3845481
293.3140107
338.5962117
309.4078616
275.0751626
265.8425509
264.1917599
252.8378047
255.093402
278.7218703
303.9336814
316.3266107
340.6621446
334.2421522
322.6164941
292.5563312
313.9442878
305.8233243
311.6970279
308.0959288
311.8291126
305.5397835
298.4163953
302.0027977
293.2658244
277.149986
284.7253378
267.1391207
275.8626019
287.2524517
302.8545053
311.4892927
292.5563613
305.8290512
316.2414331
305.2508401
364.5701862
345.7976647
330.1708648
320.2890026
294.2977884
283.5961989
268.6477422
240.769451
264.9502408
287.5583577
293.8412851
281.5617954
296.5684545
270.1608308
266.526214
272.7689485
313.5255941
317.7391691
316.3127193
332.7068216
301.2823003
294.3647597
296.255169
307.2137827
310.4597824
299.1478566
275.7252008
290.441096
291.3671156
312.5047372
293.8846092
287.7205717
302.2695147
310.4579751
297.0844613
345.5383317
322.7753142
329.7594392
328.7338421
297.0339132
293.7493369
281.6345381
275.2882602
277.1147855
280.9986886
307.319999
278.56991
318.5975505
301.0468216
307.7970862
311.0225625
293.6870949
307.6608396
298.2449194
290.5749739
280.6208854
274.7156285
267.3959078
262.4526228
304.7852203
248.6097859
278.8066619
274.2564844
297.4628371
284.0992308
266.5108919
289.1693981
299.603905
303.6162821
301.2495726
284.070807
272.8913058
274.881621
280.8341629
283.5647697
287.9404563
323.8415045
333.8402956
322.316638
271.3525232
311.0885651
299.2272873
274.3039378
251.860287
289.5256643
296.6273028
269.8206234
276.9597548
292.5606533
321.0271329
321.4817539
305.4823604
328.850337
323.9242353
284.0967969
261.5405088
251.3653243
235.9815353
228.875226
295.1471564
287.9642361
303.9730741
304.3553534
315.554561
303.1896951
283.2351305
294.2227392
318.7661763
316.3067204
297.3917088
279.1445111
299.6856593
293.7595256
312.3747949
331.6977533
372.9845043
332.9808233
324.2918768
300.9396265
272.1675538
326.3552706
342.7803422
353.7476977
348.4622693
344.3547244
295.2856844
278.4951924
237.7705303
250.5503788
258.39828
305.7593764
303.7589386
320.5996025
329.421978
327.3508119
291.561344
304.570445
297.1421159
326.36786
317.4705571
299.5320004
310.1013086
302.9063651
291.4788491
295.203611
307.2536631
272.7666103
304.1847607
339.7044643
302.2007748
317.0201684
317.8903781
320.613525
317.5353232
319.5517964
317.2866901
354.8835232
393.3024324
397.4957047
329.168098
320.3058111
333.1717495
284.8755978
317.5392317
316.3557428
326.4284546
311.3197283
322.4330591
310.8807871
307.4397583
308.1463772
315.6817333
308.2923008
339.8585784
325.9228329
300.6174304
264.1654559
246.8690356
239.4092864
275.553369
264.6338877
273.0491679
287.4312014
308.8050862
296.9466206
300.034386
336.6127944
317.799382
306.0424525
304.2306482
282.8921516
243.0319235
263.4278623
246.1015618
261.4829695
260.0189772
287.3099015
301.0686632
282.4101775
286.1923452
269.6125712
294.0505481
296.1294351
301.1301607
301.904307
279.0372735
250.4759617
270.0144484
304.7921266
300.8867652
306.7969623
304.0365931
291.7183306
309.6086181
327.17911
325.0703083
334.3835226
300.4445179
288.8983847
282.9574616
265.3706674
306.9107787
289.6443233
276.3511175
291.657142
310.1410087
294.1749422
267.2664547
263.3077158
267.6473996
281.515467
290.2007356
284.3625765
261.710499
262.6948258
247.4842103
230.5297071
272.6273552
257.0860986
245.6625076
284.522193
279.8982142
282.1015073
281.1119753
269.162337
274.3219392
258.7378721
250.4413397
267.8222726
269.3243563
259.4560337
291.1833779
285.5126699
275.8672064
292.5681397
289.0097384
304.3894048
306.8666686
278.6294777
294.8792392
324.4455672
310.9919618
290.454819
259.6269153
294.3278425
299.5530437
281.5982989
274.5729211
267.4433235
290.8301804
322.0063841
294.6058833
326.7577269
334.2538332
362.0262906
339.0744865
319.4488147
316.7450481
318.971478
334.9463273
319.1439844
289.8187339
252.6903006
257.5167711
271.2589355
265.1887801
254.7453596
281.4391259
272.3677002
266.6053194
269.4145107
286.1530282
293.4991142
325.3646293
318.6380976
336.6466684
303.2206865
283.1615881
273.5922735
309.7177506
282.3902658
291.5577619
292.4885565
300.9606136
316.234319
303.0781149
287.3737683
291.7280613
301.7401345
305.3121619
304.491276
307.8582849
301.3225666
334.506717
323.3519658
305.4186769
314.030274
313.1754061
285.587997
274.3445984
321.7266085
292.0132175
314.3452299
325.1344242
316.258329
298.4729639
302.9801995
303.0343666
292.5288429
282.6380982
312.3066302
332.0780818
321.8170721
291.4356407
319.9840282
298.7425524
307.2224596
302.6135212
316.953048
317.770636
309.0253662
287.5422391
289.4504199
296.4524082
292.3767354
309.4023311
299.9343459
280.6340701
275.7038346
303.9764873
319.6719605
325.4653025
330.5430139
336.6106548
324.9683597
317.2958381
295.0043541
307.8883462
306.9570799
304.917185
306.5698022
310.576093
309.868235
292.7806997
295.7808692
310.4375637
326.7308879
371.6081317
348.8840592
340.1545408
324.9242576
302.9191118
284.191437
282.2891783
320.65185
304.3298509
286.5765738
281.0339963
295.8813893
298.9379145
280.3546359
293.4503303
301.9124281
300.5987443
288.0384433
319.0119973
293.8427302
266.7707036
280.8621267
279.0863265
269.1111015
318.5029709
300.5217655
290.9762905
271.7216564
287.4296594
304.2607335
285.431362
287.272778
282.6812135
314.8016588
311.6287549
316.0711069
348.3004535
322.2553476
329.9725863
325.0622613
307.0611009
304.1803612
292.6011446
327.1482825
343.4878066
324.6372585
297.9074485
283.1354514
280.5969709
292.837491
294.1067244
303.6819609
307.7270377
346.7667131
360.2466304
356.2531875
328.8721973
331.3927998
306.164471
303.5162194
307.570019
322.3119722
303.4519971
295.302202
320.8868238
321.4077498
303.6533524
295.1797801
292.951101
312.9976531
343.9403703
370.3397548
363.2418389
325.2551352
289.8462433
276.9492295
298.2830745
285.0581098
359.1367569
336.8083798
314.3526627
303.2992197
328.9657631
340.4040976
342.9437862
335.2129074
317.1213801
309.77598
314.1101699
331.910862
350.1339637
323.4940712
324.4745764
274.009736
300.3442629
316.2965566
334.8811893
308.5969808
279.4987762
300.956624
322.0302864
330.2115122
351.0360533
305.5125405
291.7875575
294.0195748
298.681839
294.2842656
298.841365
311.5723695
287.3961014
288.4231302
281.7185698
309.6083713
303.3268824
309.5503181
291.4824836
286.9093888
287.438228
302.0427081
293.1087047
307.0061233
313.4010781
301.3066225
292.4305061
306.8880401
299.5507364
295.9376268
265.7322511
271.8759798
305.1966486
295.3701952
312.0004384
296.0039478
307.8955685
292.2350911
295.8568875
317.7464153
335.7207049
367.7111578
353.5494088
351.1172429
297.0282332
303.5584544
311.4293744
320.7498522
328.6209553
307.5919254
302.7921371
274.2602759
301.1219674
320.1822905
288.2471129
318.7724106
294.1005928
287.6245633
329.2416082
318.2067793
307.4305524
324.4609123
322.7871481
319.4849731
320.7836436
358.9348652
346.173592
328.5546962
335.4891158
319.9970693
298.9072202
287.8083957
302.8150306
307.5519476
308.5856949
355.4799057
341.9363997
322.7015032
322.3338276
309.4809088
286.8386679
317.9575952
338.3286256
328.2495266
291.8499818
284.8453097
302.9593064
325.5888202
314.4045594
284.8106349
284.3582394
304.7411193
306.1099226
345.1504256
340.3616337
262.8401088
277.7296139
281.4154829
264.1362063
255.481967
296.5340419
304.0198325
296.9869416
301.4350825
292.1814275
302.8392115
276.0664283
291.62414
277.9762928
290.7022791
267.7133175
259.7243346
257.1633655
252.0495991
252.1612029
312.5883768
302.8520605
310.0121756
313.463729
340.4935821
316.8533781
297.667616
319.3072638
305.646934
294.5596927
308.4245376
305.7202296
310.7739741
317.0495377
318.1275709
317.2816502
336.6443988
328.190293
308.9997018
287.3504974
300.0101981
306.8650181
301.4942262
289.7671224
294.1529548
310.7121108
315.3475505
313.0618697
324.013806
312.7090543
285.2400665
302.2864985
303.142901
326.4379895
312.5070964
318.4988391
316.0556389
306.2881439
317.9585002
296.3154434
301.435332
276.5743233
287.0935787
283.1020539
268.6116929
263.4203846
261.3944239
268.7764374
272.5761947
297.6489428
306.3929228
327.3623898
337.5342968
301.3892838
321.4473099
329.9141647
323.7845233
325.0817107
327.8607314
347.1063416
319.9705399
307.6065411
312.6663115
267.8016851
274.4109713
296.8050638
284.3824615
268.640519
275.8692755
260.4103317
267.2110917
269.7111711
289.2722791
314.4078929
311.4725306
293.535345
310.6186848
328.4255142
312.2216587
299.5415736
292.0486905
292.9985935
302.1184445
312.0358778
324.6981297
304.086713
292.483802
299.2206657
307.3998712
292.7145598
270.5627012
283.5337262
285.2336582
298.2551601
293.5807858
301.6583895
305.1460685
305.4408737
323.4538615
302.3219078
288.6261549
311.7826612
291.2572825
305.0761917
286.0337966
281.5735702
304.9561034
306.3395147
303.5353839
285.2673575
303.7354084
300.434235
307.2004296
327.7934819
346.0302946
299.3871504
279.8906598
274.6810728
271.4683809
267.8622814
292.0116413
313.4928831
319.4875737
303.7214884
312.767608
321.8300845
313.0352227
328.1910281
300.9432623
328.3216856
309.1513282
295.8268313
303.332372
304.6491973
306.3253347
293.5672286
265.6294891
258.0901124
242.9454668
265.1153486
349.4789527
327.8195566
314.1233848
292.7676162
303.1701139
302.9444276
306.9752566
317.0968573