/*--------------------------------*- C++ -*----------------------------------*\
| =========                 |                                                 |
| \\      /  F ield         | OpenFOAM: The Open Source CFD Toolbox           |
|  \\    /   O peration     | Version:  2.4.0-MNF                             |
|   \\  /    A nd           | Web:      www.OpenFOAM.org                      |
|    \\/     M anipulation  |                                                 |
\*---------------------------------------------------------------------------*/
FoamFile
{
    version     2.0;
    format      ascii;
    class       volScalarField;
    location    "0.0006";
    object      translationalT_N2;
}
// * * * * * * * * * * * * * * * * * * * * * * * * * * * * * * * * * * * * * //

dimensions      [0 0 0 1 0 0 0];

internalField   nonuniform List<scalar> 
5120
(
292.7642982
292.8873593
311.4512448
299.2140255
302.4097563
301.6144138
290.1001553
281.7254515
287.1349441
312.9647886
310.943938
308.6685075
309.0327946
305.6536935
298.1372034
307.3989165
314.4240515
304.6938592
314.4656689
296.6471583
293.4551449
294.3321574
285.4128338
286.71025
308.1510971
291.9943246
285.9257253
303.154152
313.1644738
303.7881559
299.8004338
284.3152681
301.4272541
297.9250788
300.3567935
308.0832761
301.5178185
304.1598249
302.7906287
309.9081548
311.5000795
315.7365357
318.6922935
309.2306431
308.108098
310.6522147
310.1205474
300.0528807
287.102365
290.0758525
293.8417955
293.5904284
301.1230173
313.211944
306.1698027
295.8560297
283.6113243
289.871691
297.3591576
306.5157975
290.9549357
268.4582267
272.4307679
276.1579747
285.73376
275.8288729
260.6693616
265.8099477
290.3442494
289.0625569
282.9439105
293.1536021
292.6977766
286.8172992
288.0573431
298.7983115
292.9373095
293.4240866
279.9083347
284.0469379
307.9702613
316.494311
298.2832928
286.9967438
276.6967979
291.960551
308.5557961
304.6200882
291.7083862
286.9098223
275.3450979
287.9763907
289.2319899
296.8770096
276.408782
277.0709535
283.5219273
301.5256719
301.221948
301.7193343
304.5722588
302.0711944
307.808821
296.5818486
294.8007915
299.3676856
278.7821509
267.206575
270.2924757
284.2885179
297.8976906
301.5872449
293.9566915
297.2603106
302.0647786
291.2240093
281.4060544
282.7356365
291.9117025
303.0434531
292.5072162
303.9382891
301.6145518
310.1068448
315.9941055
300.288968
303.5963984
313.6830337
307.371236
294.0978229
290.6695828
308.9416349
307.1513462
303.156872
304.5393156
322.5133971
322.8930254
316.7636988
313.7424594
305.0478864
295.0023619
273.7434783
288.2222046
308.4844331
307.0137959
305.8846144
294.2050085
307.2017099
315.3093763
309.907704
301.1690786
302.6879605
299.1791106
318.315801
327.2520338
314.6390833
325.377039
333.8635913
313.2278173
306.9165355
297.7826081
305.8613887
313.5121397
296.6172781
291.280964
287.578482
302.2570934
287.6475165
287.8308449
307.4186016
296.356084
310.9439627
311.4817807
306.6682794
306.5199372
318.5999683
325.3301101
291.7274667
289.6320077
288.8677076
296.1716684
291.7576376
293.2709675
297.7327967
311.3529369
311.2624944
311.8017774
316.1023181
306.2348281
300.9774707
300.5443301
307.1086746
305.1219049
309.0692943
308.8937926
295.9097349
288.1662522
313.2111908
318.0331287
299.9384634
307.2245925
304.0952109
280.222578
302.8611254
301.4665176
302.0883327
302.6805844
307.622413
309.0807392
304.1764088
297.4134818
302.4659474
304.4933625
305.3471632
304.727128
294.4326873
299.4889155
299.8264466
304.4073765
317.1348904
293.067251
293.7459741
300.6127488
305.9364737
297.7156436
301.6849538
307.8100668
304.7376208
297.4627766
291.653848
291.7402021
301.176649
299.2953925
295.8159993
291.7202246
289.2338537
282.3000129
295.4917027
298.3844628
296.5664042
287.0254341
299.2711932
297.513027
284.8352335
297.4613044
305.0372149
296.5771216
285.5642791
278.2083958
303.6234754
311.8334524
293.0832011
292.5005083
299.5829833
293.935118
296.6506737
289.7793729
289.4734432
298.2307609
286.442931
314.8910332
323.1124246
300.8381072
302.9199611
284.6977704
304.7222333
307.3026141
310.1553192
311.7494799
315.4598035
307.1768398
303.0691852
307.4073792
291.8253073
303.6124735
306.057466
302.2511267
282.6537908
272.8749402
304.9628295
286.777615
286.9378118
290.7507697
294.297746
305.7856135
312.168761
302.4748457
296.7817068
286.2309453
284.7857704
306.6435522
291.9216608
290.0530561
300.9964889
291.9259838
291.8628666
290.4875124
308.5749029
286.1055034
292.0208874
301.1571899
301.7615736
295.6990971
289.929144
301.8886878
299.9481613
301.0978605
299.1747503
300.9765015
303.3351418
298.3737087
309.4674998
304.7836618
306.8394787
299.1294184
290.2148797
287.6785365
298.0771756
302.350805
298.0587496
296.9800247
292.2884933
302.8430433
308.4303297
308.2308036
306.7397328
295.6155485
300.1981327
316.9253805
292.7148075
307.002317
296.4073612
311.1180771
307.5890166
301.8880485
305.3900638
310.0389597
309.7550344
296.2555321
293.5340433
302.6522426
302.8980954
302.636348
293.1073633
296.5021666
298.4004706
307.7691768
313.5612923
303.0092309
297.9760972
300.5018734
288.0602631
304.5764716
308.6909397
302.6061876
296.3525859
311.1190047
308.6983489
308.7887151
297.3935851
318.9356131
321.4501068
318.667308
309.8818718
297.3428199
293.3653849
302.514103
294.9466467
304.4762043
302.0256671
299.6747149
310.3328229
296.6725439
294.6582983
293.0083631
298.0855883
312.2152723
312.3370637
315.5850983
322.9290355
289.2223883
292.6847755
298.9333404
307.0766914
291.7466283
303.2546681
288.0738622
293.3007071
294.3019526
293.123307
290.6133986
292.8135881
300.1183676
302.5379932
296.283318
295.4012876
284.8342857
286.1497822
271.6128928
281.1980015
282.4058033
277.9970157
292.3793831
284.6135679
290.7321361
295.488812
297.0846139
300.2777645
297.4166369
306.2919037
307.2274185
302.9628417
305.4242371
303.2868534
297.1851517
305.1921179
290.2098602
296.2323516
291.9380203
281.0757116
311.8436642
294.1707364
291.0646372
302.1192006
310.1096094
294.3224881
313.6291635
311.3276348
314.9300479
299.9452858
300.7505912
296.3444381
295.7559347
302.9685677
306.0649987
321.5077921
340.837715
327.5374691
306.4915021
304.2260676
294.3152794
284.9084829
285.5823225
278.6232209
276.7975322
291.3750877
291.7293581
296.1184163
293.13146
299.4892875
311.1962216
308.9272797
311.1711164
309.6060647
305.8445286
298.0507885
297.0673838
311.104227
310.5582139
292.7008274
314.5818498
337.1693307
312.5422263
293.1540528
289.6285945
305.6717739
303.5842147
298.0334009
296.5930759
316.4581266
307.2480913
300.9923502
299.7329804
288.3897918
290.1888875
290.0377226
289.4305695
289.1820028
304.6637359
306.8334796
299.4859724
299.0576632
284.0267667
298.8579181
304.290822
300.2235304
298.031883
295.2255866
302.0926457
300.602154
293.2146245
302.0479337
291.8157205
295.1187876
285.1621465
297.1055301
303.1268731
308.7142194
306.5227568
299.6763049
319.0657351
322.0949467
304.519221
302.2780624
312.4618171
299.4721808
292.6641209
298.0228278
292.938519
291.3506649
303.120354
305.6158187
297.2676105
280.9737837
284.8110608
302.6432406
311.9362975
314.1748425
316.5120467
312.9325271
291.0827895
303.2647154
310.5250782
300.6777166
292.9354223
287.0608104
301.1130494
306.5870841
302.3271585
304.4963825
298.3089294
301.0288725
308.4778302
305.2210339
325.935931
316.833746
305.2038072
301.2121798
286.5937359
287.6295111
283.1862854
291.9213939
297.853815
297.1046398
288.4173879
291.2881529
297.0410665
301.6420385
322.9308309
321.0013062
304.9241639
305.8834333
314.1288028
311.3734946
308.9556972
310.2034263
287.2664829
297.1003809
285.9531619
284.5891111
307.673003
286.8024585
294.6181013
319.5422455
311.7052411
302.611757
295.5364485
301.3103522
303.9974904
288.3068956
300.598035
293.4179406
282.2850924
296.7583542
299.6698526
288.8016714
292.1630414
289.8167152
290.384868
299.5357148
312.8656387
315.7680259
328.3230424
319.1009215
308.9191813
296.1864297
303.6968067
295.4554596
292.7372036
304.467132
295.4439416
286.4656687
301.2602634
301.7249424
305.7110461
310.5797268
309.7571194
326.3993081
325.465382
305.5694961
292.8227522
312.2734878
308.3340757
313.120165
327.1846423
304.0339151
297.8059536
290.2586467
280.8754674
281.102342
283.728576
300.0041898
295.2474368
281.2086379
305.8379878
310.3693215
315.1776009
307.6601448
309.2696106
296.5398506
299.2957376
306.3205297
311.0083983
307.6866698
298.3699314
317.9706124
324.6649792
324.5140143
315.7557624
299.2379357
284.167104
279.0930516
265.6069585
288.5391832
291.9190684
292.6423415
285.8352958
284.0473941
295.6543316
311.5111007
290.2266068
297.3007247
293.1254307
296.8024388
302.8707518
294.9859252
292.5747119
310.2490044
300.845086
292.4057968
292.4718632
316.3393288
310.7087989
299.4719017
295.3617257
290.8204557
296.8258675
283.4481941
294.2489176
297.249709
294.4256681
291.3347417
280.7190713
272.0084037
273.4004462
289.7704902
277.2298294
271.2741179
292.0588403
300.3261645
294.9945134
283.5865142
274.2882537
269.8989856
295.7445199
287.5231302
290.898697
288.4720237
288.2465866
293.9759757
310.6428922
314.2183572
310.3774984
321.4080413
324.1471128
318.228919
311.2708342
311.6171698
306.4726905
283.8918866
307.0948903
310.4967932
300.9432312
291.4408659
285.4177729
279.5510961
312.2448602
299.5047646
297.8205298
308.9022225
286.179244
274.329581
289.1211931
309.6912712
313.2739769
310.0973268
312.3335466
298.4970866
303.8245272
308.2724576
294.9299996
282.2187078
280.7569307
279.5728088
293.2588579
292.8578416
293.8688152
276.2230443
301.080452
304.8881913
289.7705489
293.6447639
280.1203294
281.3929407
277.2223698
289.5350807
293.1671098
297.3152988
299.4320421
287.698984
284.706388
286.4571336
286.9297043
280.1776801
274.3048569
285.2628224
306.3612488
307.909231
305.6510534
289.0818271
296.0311915
282.6113456
281.8233287
289.8023947
290.7112118
289.528648
300.7377779
296.5614995
295.2777093
295.940304
291.4260624
292.2498678
287.5139421
290.6976918
311.9820586
317.6863271
305.0824302
308.4804399
296.2480888
303.7655216
295.2231893
295.1327216
304.5167309
290.8592887
266.3174698
275.982178
277.9439035
282.1131492
290.1772413
294.8172617
287.3423259
274.8042734
293.5232009
302.7536577
300.9575893
303.3314282
303.6264538
288.8847451
289.934753
291.1707881
291.8640508
276.4905239
298.0683892
322.0086775
317.9090493
298.9627341
300.4477378
291.847522
287.3642308
298.031465
305.2280065
300.9448375
289.6555949
282.7970228
301.0491287
285.2362662
265.7481632
254.7347207
260.5437104
286.6639394
311.1116788
299.6940015
305.3409613
299.3815647
301.2105988
281.890535
295.5256511
307.7761768
314.8261301
315.2384035
302.4498612
284.9693452
284.8281893
306.347802
310.5021827
310.9283146
326.6347622
307.7921751
308.1017413
309.0251683
309.4760392
298.957107
296.6027694
286.5239143
280.3662623
315.0142627
309.389158
293.6952416
294.0529441
292.0060938
293.8318238
301.985746
304.5993912
323.224372
322.6592514
304.8325783
284.5142033
297.3063106
302.1603755
316.0453203
301.1294543
301.527604
300.3230031
308.0686349
301.3383911
298.4742486
297.0050002
294.5293085
284.6147004
309.3122486
316.7892277
298.3059292
290.771888
299.2244612
283.5028853
293.4122237
295.3149818
289.1373261
299.8882667
300.5551967
283.381132
281.3465823
273.7877635
283.9718356
302.005438
278.3480879
278.1119625
291.6894858
290.577528
307.5029945
318.6303667
327.5132998
314.7894032
304.0039346
313.9698745
315.6529993
297.634403
299.2768033
300.8517444
287.942665
308.3527852
312.4141777
316.2447115
312.299599
304.9776628
303.2274408
305.3707326
310.9222394
306.9986279
313.5550011
297.2617136
294.2107728
308.8161261
311.0757799
299.0012965
298.0741108
290.2362582
297.4060323
302.2140708
307.7757872
298.9089662
285.7883995
280.0384235
287.0854986
298.3626566
294.7179934
285.4662649
282.3885809
286.7816005
282.2235847
288.3241142
295.5707648
289.9215999
278.0424693
299.954422
313.0156064
306.9375516
291.8841717
288.9543011
301.0807827
292.6921408
287.6137149
290.9434188
303.3203683
310.3279792
296.1075646
286.3212509
291.6113837
282.4803677
296.9301049
301.1609202
286.482075
280.2256299
280.0404898
272.3225787
273.9068625
286.7406331
292.7804004
295.5633535
297.5457505
300.1601975
313.8079542
303.7374956
307.3245236
320.8454973
311.940685
298.8698218
291.5773396
299.3389771
300.5274456
294.522021
300.2433008
309.8531138
291.7572949
283.4839398
288.1103933
275.7249496
274.1637702
273.5665034
279.0459555
281.6545382
289.3738122
311.4855517
306.7531805
298.9946862
294.6435891
291.3313517
285.7104895
286.6403313
277.1254683
290.0484396
278.8254241
285.8699808
299.3974212
304.8624149
297.4125765
292.838096
284.0515675
297.9139404
276.9463239
295.6751828
305.5009256
292.6494396
302.4373322
307.6460358
286.4324886
291.8531465
304.9266962
293.4445607
295.8687978
291.0742386
296.1694147
283.7993391
293.2446023
282.9510823
299.8276599
287.408636
285.1234244
281.1448073
290.0482873
287.304564
288.5254846
301.3976119
287.53845
267.2594862
275.7270247
291.7454716
295.7438974
291.6266724
295.7527054
284.8510111
297.9371035
299.33895
304.9737807
322.379715
309.1903328
296.9171188
297.9483422
305.4171274
296.2869597
273.7347478
271.5484243
285.8796982
291.6012812
295.7665683
287.3157903
279.1261997
277.8315272
272.8585022
279.3831268
289.8214313
303.438614
307.0085777
303.39871
293.6115843
295.2816592
284.6077241
283.9314973
289.2659456
269.4025133
285.1909942
268.2503229
273.8207913
278.5746286
293.226912
298.0512341
303.6243749
304.797216
303.8154612
301.9442728
294.6306091
293.9867658
292.6353689
303.0451765
296.1643051
281.0753046
277.9315261
269.6956136
278.0633851
281.2881783
277.3398442
293.2381189
296.031938
303.0487615
298.0153262
289.2432805
273.4805593
274.6400477
275.8219566
284.6971942
302.7576617
289.8646127
286.1154402
303.6731816
308.3290606
310.124331
285.2535851
274.0114831
289.5190032
297.0379247
316.74294
309.3577664
292.9452196
300.331948
296.671124
302.149228
298.8787847
290.8893354
287.3648434
270.1558518
271.8778436
274.1741177
288.6571177
284.3593368
284.3259318
286.301004
321.7965529
321.1558695
306.9334889
305.6503246
306.2968107
313.3762943
313.2296658
300.729109
295.8282494
306.5235149
292.8708731
282.2608575
290.9806047
290.1918708
292.6996289
295.8281069
294.805054
297.7291358
292.82478
291.3769125
283.2187335
306.0938036
310.0891801
310.7252082
292.6102554
293.7514099
281.7812258
284.4519045
290.7924778
294.6772721
288.8296815
292.7250663
293.0828348
285.4193424
300.1461386
296.4722953
304.0246218
304.6162695
298.6096822
291.7770634
280.2234745
293.252596
306.0180175
305.6867925
292.2491307
305.8042618
300.8797357
302.0296019
304.5789362
298.5060132
297.0056617
300.4328794
295.1612861
284.718793
284.9311773
292.2516667
294.3931112
282.5385921
278.061632
290.4434322
305.45874
319.4693484
304.9602632
311.3054916
308.1604909
313.108244
309.3983803
297.9016885
283.085682
280.7017675
288.2159013
294.995574
298.6266905
317.5170072
301.9902788
317.8685252
317.3024883
295.1996928
290.544649
291.2183404
292.3308071
306.3196883
294.4664155
290.0764925
293.2540917
285.0436847
299.2957361
299.257387
292.5826353
296.6515157
290.0859892
300.9686924
306.4112949
311.0744724
323.401201
333.3804716
323.2361416
317.3195699
310.8123492
313.0366177
310.7003699
302.5408992
304.567996
299.3250032
312.2492967
313.6681429
295.1244256
300.7144916
303.1045799
296.9002322
296.1339963
296.6305842
292.2008087
292.5160645
292.3776882
308.4823505
322.6924717
329.4171083
312.9626412
301.2189934
300.9597869
315.4004035
312.2081622
315.7895964
308.827503
299.9795555
294.3921459
298.6729347
295.9012393
296.105825
300.6733295
306.8342515
309.6253999
291.2187488
309.0361586
309.8363164
315.1575343
307.1589013
298.1357585
305.3935399
316.7082324
317.3621958
314.148673
296.761089
312.8905778
308.8007557
305.4269557
302.7163243
295.2855638
312.3811126
324.2047922
308.3422173
312.3905045
316.7962018
329.6876319
327.4336021
316.2397082
313.9086268
335.709642
342.0111915
315.6136855
302.6268971
304.4581592
309.3203675
317.4653994
298.4473023
304.7613234
276.0625825
279.7769037
289.4569032
289.6236931
288.023846
297.4587186
307.2688529
297.7107735
283.3097731
299.4243569
307.6465201
296.6763231
297.4295261
310.6102479
297.9397897
296.1356586
317.8464607
299.8227503
290.1061236
307.1211768
315.6170102
327.4093578
311.5997188
314.7291573
301.8096743
294.3046529
298.0200223
303.2287317
301.6427183
291.3393171
298.0975155
304.5233161
288.6609764
293.4253343
302.7082797
301.4733763
301.5865265
290.4195213
304.0356577
294.6532251
308.2924636
306.0702235
299.4164868
294.8254578
289.381536
291.9870592
272.8917114
283.6628749
282.7469746
289.9210734
294.3362763
288.5581725
295.8126266
296.3000228
276.4652364
280.3252424
275.1537636
288.661097
286.4003457
297.6129073
281.9007615
299.2918104
298.9898215
290.1744529
292.3697882
294.368845
310.2948961
305.2314387
302.923606
309.4122283
324.0689743
317.985056
318.7197723
303.903014
303.4831166
303.2762151
292.7691997
320.7572902
315.456874
306.103443
299.860588
303.5464548
301.3433342
295.7332926
302.3570501
310.5434205
307.0558385
308.0611629
306.3329691
299.547692
298.3729454
292.1281299
288.4909375
290.7492955
291.9897184
305.6280091
318.6733381
312.3808117
291.7740911
298.4762796
280.3260879
299.442174
299.398125
321.0932286
310.4452945
298.1770312
300.8871304
326.0673009
320.4185603
311.804857
302.9405634
296.0254048
290.7535979
305.4908413
303.6772135
309.2685619
304.8612836
310.5854525
327.9728564
319.5617023
299.2441253
273.2980304
271.7803187
264.5609695
282.2823167
290.5097535
293.6666528
289.1088827
298.7992667
289.1864008
280.8959616
273.4847291
279.7335109
281.3801374
295.6141623
298.785275
298.8541894
286.5629315
293.8252247
300.5611805
309.6256554
311.0759714
306.7306625
315.5518869
308.8207667
305.18224
312.8390802
299.7953142
292.0938288
288.0273632
295.1966567
293.41082
284.180083
270.6037808
291.3502288
305.8319848
284.8886443
301.0962601
288.4602019
300.0566971
301.0199105
315.7025567
298.6542989
297.8248495
307.0277897
292.1466542
284.3166019
273.6483887
276.3270782
279.6225132
279.654043
275.8875044
296.2629297
310.7338127
297.6407898
291.9829287
295.8814267
305.9792661
312.3011841
292.9646221
276.3219105
282.261748
294.9964976
272.9625982
258.9664311
270.9097436
275.2847096
286.0683649
301.6101264
290.8726478
300.6541728
301.4030158
297.6535548
294.0922195
290.7339865
283.2720303
291.0432344
286.9846318
278.4644835
296.9513144
297.5446713
300.506893
302.873162
306.6067875
302.926008
302.6352647
295.9048667
284.362605
295.8521477
288.8661015
294.1881146
294.7833599
300.8266507
307.7119339
291.8662556
289.2426297
280.6057207
272.7866529
272.1672352
287.6501895
303.5821327
313.1038589
287.6252429
308.0713075
313.1491216
297.8539342
298.1613161
300.0285134
291.9681145
304.4080687
305.3962214
301.9486485
297.8176638
294.2601897
276.7554468
277.7891883
279.4687551
280.6137082
276.0248535
285.0307865
275.081969
277.5099782
280.5492418
295.763988
287.5271019
290.8201565
302.9086094
308.2152646
290.4763438
277.3403658
282.8700991
286.8692962
282.0187407
288.6004708
292.7118815
297.6488367
276.8505762
275.5799216
281.1845346
279.2482314
288.8147487
287.0632699
281.9371525
273.6009588
281.4712974
288.4150846
284.2444639
295.0615121
294.2518482
291.7062173
290.9293899
313.347603
319.2430621
307.9437023
298.114663
284.7368547
285.1733068
313.2074918
310.3360124
312.9111587
306.4491514
307.8376693
313.7411429
330.9840763
324.0669322
317.6160174
323.8334932
310.5211794
307.8248895
298.2574076
294.5043022
297.974513
313.8594236
299.5020894
296.9321777
290.7899719
309.3640284
299.5558916
301.2020444
292.1472689
291.5281063
296.6019495
283.7848291
276.1944319
299.8960912
310.2118675
311.9655286
298.7833361
304.35372
301.1390498
293.2640931
295.1161032
294.9719794
292.3726988
308.4195327
304.6664583
295.3896559
311.1549076
310.3526669
312.6549669
308.1535421
305.7967458
301.1950269
311.8887108
317.3253266
321.8191318
303.9687442
310.6835519
308.6992981
300.4924515
279.6073941
284.9295662
302.6990941
319.9491481
330.5585298
334.3275605
326.8499209
318.7515071
307.4633433
293.1673598
281.7287354
282.4865043
289.8794209
282.578444
286.6138395
281.3718776
302.1116379
282.8550883
287.6856925
279.8354972
296.9403537
282.3556515
263.8406841
262.2639982
275.5947954
285.8192838
309.5571778
294.537919
286.6880289
284.9992632
278.8439088
277.5164848
287.8120596
278.4858465
278.7350359
282.386882
294.8433599
293.5778894
295.9525338
287.2952509
282.0988437
285.8094147
289.6518638
282.8059706
291.3173532
298.3021137
295.0564992
307.811075
304.3807049
292.192068
291.5583282
273.4698822
267.0785173
286.6056292
290.6268548
308.0467295
304.3941264
303.6838884
319.5777542
313.922897
306.1009193
299.8502948
300.353118
313.2716025
323.1998985
309.4776545
309.0922991
298.7674973
286.4733858
305.3684751
306.2333034
319.6029209
308.0440625
305.905836
304.1252202
304.4223552
298.0620444
301.9536354
301.5075479
300.555169
308.7580526
294.3145404
291.8924292
298.0880916
291.5259551
301.5760753
296.149671
288.1536143
294.4165635
300.725949
299.7668453
287.5299904
285.3994506
276.9584213
280.5062131
289.417498
303.9984412
304.7853078
339.4706282
330.0014972
300.2591655
307.8181194
300.492229
294.9207764
286.4704985
280.5538815
289.8193646
290.0424366
292.809039
287.2966088
302.893593
302.8956444
309.2123859
309.2870034
289.9160951
280.9254597
275.3454452
284.5607489
287.08565
281.332084
284.2444243
291.1289926
294.5464928
277.4042052
281.9841215
286.8536473
295.4949392
281.683227
275.3268761
290.6683499
292.0752004
292.1186943
302.4601018
305.7723092
304.3633604
296.7915363
292.6377617
276.0218519
268.612162
278.2003222
285.3305104
292.8005497
304.0873927
306.0394034
294.4606263
284.5536808
287.8791031
284.977062
286.7584489
295.3063018
302.1972397
300.4894915
304.4386993
307.0338716
298.8639521
304.1836456
304.4532488
292.6735069
283.525295
288.2462549
295.512937
310.2326011
303.3747033
302.2772141
299.3320047
297.5448089
292.3916756
279.6706499
286.287507
291.077168
302.720838
294.892464
297.8886257
304.73531
307.2860864
306.7058798
295.6240739
287.6280325
281.5775045
265.9941108
279.9205016
291.966452
274.0902224
295.6583766
299.7580569
302.2823616
289.7887648
284.7992376
289.9038595
293.249199
303.9623677
323.1942496
293.389116
289.5479746
282.9868033
297.8652493
305.1382876
301.3505688
293.896634
300.7998072
291.2116839
299.8782125
320.7769688
302.1493709
299.9278157
281.3601716
275.8365597
299.2795921
301.78215
300.5492634
287.3795216
299.4333272
307.6349382
310.93844
301.5039971
290.9623667
302.5665909
287.1701476
283.8718882
290.7783257
314.5129959
309.194085
308.1344085
291.0148871
299.4503934
302.6732326
294.6058061
318.3573221
313.3017468
301.2877262
307.3121167
306.0604361
304.2457402
295.446194
302.2375725
300.4004918
295.0888191
282.4563811
275.8903732
287.495232
307.4814203
303.5989943
290.0185881
295.630058
284.2013174
290.1828187
309.3482843
292.2440451
293.4733408
292.543114
278.9826912
289.1306507
296.7939106
307.3302624
303.7251977
289.2673089
296.9578265
294.1344502
290.997478
280.9622493
292.1557646
301.3235142
290.4368682
284.1103166
281.000553
277.0215951
279.0310661
285.7028872
298.3884869
318.6964306
316.1333337
314.3845415
312.4921686
312.8754166
333.3540317
321.4983973
306.8732727
328.2673627
311.8797122
316.6340383
309.9222885
307.7619513
297.5462134
299.9813474
306.9333576
299.8442351
287.7449785
292.9026236
283.3044366
293.666593
298.6576889
308.6030366
319.1798389
327.3184911
308.8564038
289.4818265
309.1324416
316.6341793
294.5560108
305.7732748
307.353343
295.2054175
304.1531636
305.7483421
285.8479126
288.5992509
289.3468248
284.6371482
296.6466364
287.2010702
297.7009067
313.1833899
304.6200707
296.5323843
319.8596592
315.7034413
286.6496786
298.5669015
313.1461913
308.0872159
301.5851155
311.4849268
313.6431619
307.328899
321.8087028
305.1566765
293.2355285
276.6500732
278.178187
288.3860951
273.804031
273.9353503
277.3869396
295.0726483
304.7309149
300.7690231
294.1807207
286.9034859
293.7830336
299.8386242
301.9577736
297.1403605
299.5061485
309.2059069
313.3400463
295.5214511
289.3406447
299.0688919
307.0673413
295.440226
295.6335407
286.558137
285.7612778
296.5811816
287.50679
287.830078
293.6909923
294.6095336
287.6905743
289.5165763
287.5454273
299.2471927
286.9419844
289.3178158
296.4570275
288.7992618
284.8985202
296.996089
297.4143089
314.0102852
310.9880522
293.8916444
283.5867935
283.4453998
303.9814561
302.9295822
289.0379345
286.1385336
287.2487758
288.4098905
301.7018543
294.9221656
305.3765545
296.4297847
287.2686592
292.9679804
291.4445179
291.0887466
293.8163078
299.7082058
313.8020302
311.6897537
315.2190982
328.1693477
308.9302414
302.7616364
310.176355
290.5199764
291.660345
311.3017318
303.5028275
320.7805098
318.5424427
311.7495549
305.7425397
280.061843
290.1894153
298.3267698
317.5985611
307.0770215
301.6192238
308.0930892
300.7677833
302.3134831
309.4505089
309.6347652
308.9499507
320.7663168
288.7910152
297.7177004
295.7338145
291.854825
292.5359295
318.6690199
316.6931896
307.6231053
298.7162546
283.0027826
272.0271303
290.9049477
291.7919825
284.4678194
280.8590236
294.3900989
302.1619507
303.1535544
306.8009178
315.8647442
307.8729816
284.6824895
295.5340836
295.467255
305.9325805
294.2273997
303.3661158
298.0749159
293.575503
294.0304865
304.5792203
295.1001624
292.2988051
286.1039247
285.2773615
302.6839599
308.8097804
300.0580304
297.2504158
299.2071319
297.7987403
292.7501254
290.6172714
284.1846575
275.058271
289.8999458
291.5559092
291.2640799
299.9196774
295.1558511
323.787543
317.268427
307.7610805
325.2382186
320.5878448
307.3275585
292.19949
287.9700796
283.8060498
293.1029138
296.8200169
306.1773086
304.4712623
312.9676635
312.2352577
289.5699395
296.707209
304.6852794
277.5680962
301.9189647
286.4339584
284.1980971
287.1555908
317.9766897
314.1147088
314.354569
306.192646
295.9173698
312.4864847
316.1304147
323.7313151
313.4195025
304.0420957
280.0360987
279.8258925
305.3678265
311.6124799
305.4803988
314.1651856
303.325076
308.3179381
310.0488912
296.3511268
280.9745319
278.6538164
276.2899259
278.6981204
271.234607
275.7712378
278.7410705
289.6378487
295.2403233
305.0417148
293.4600007
291.4152714
298.0594492
308.7938494
308.7995653
305.6075679
309.9007685
311.2847777
306.3018842
310.7120035
307.7458021
295.4555701
288.0719373
298.1345412
296.7122062
294.0265384
304.0707548
297.0415699
289.9923212
278.6027649
271.4889611
276.7571612
280.0846715
289.5049719
305.026158
312.1021425
298.0495253
295.3483826
291.084463
302.266513
295.3103497
294.1310088
290.9586009
295.7347869
291.2172358
293.7209572
307.5545891
329.1883774
319.877567
301.530104
283.2935484
282.0756704
289.7807447
295.554689
293.0948423
301.0064227
277.7824245
283.9682868
298.6726954
303.8196243
314.8957145
311.7676393
312.2692927
297.9472368
305.1580266
309.7219191
303.9874379
305.410297
297.2234025
294.4786119
294.3238225
280.1273569
282.8663518
288.316967
300.4104952
288.580324
297.8746677
298.0841247
287.0203384
281.5514505
284.8804581
282.0987338
293.6353287
303.9759424
299.37417
318.8204785
312.1349577
300.2286634
289.6529197
291.1795072
299.1719975
308.9112575
311.4505539
305.4102308
295.0238068
286.7135172
293.8624691
309.8153137
314.7839898
307.7791382
301.1073093
307.0154401
298.122949
299.7262082
317.5790733
310.7258255
304.8552026
306.0762261
312.7730791
306.3223562
289.5344314
288.9495278
280.7375622
291.9482507
289.73282
280.2729087
297.7514266
290.1021406
297.1538136
299.4323869
297.4069408
286.1911889
300.4168703
296.1407674
301.2594928
304.78504
295.7425122
292.9784731
290.2454774
290.5283173
318.3847048
330.1636162
312.6660968
292.8871687
301.6255989
298.4010584
319.1436813
301.1525711
299.7504348
311.4679401
321.5337934
317.3938327
309.6802471
310.0027285
304.4624256
310.2764962
322.6931226
297.2036059
286.0355116
309.6185503
321.8544131
312.3204805
314.0698648
328.0145169
338.3184367
337.9492678
290.4381933
285.7300192
289.8222098
295.1310223
296.4679887
301.9558249
306.2768639
309.8395449
298.5250586
302.5403585
295.7954607
316.2949969
298.5407641
296.8058568
297.9956723
331.7821295
312.1553651
297.501728
295.4548
292.0370545
295.1590592
291.3303979
294.3271094
302.356328
298.7384312
290.8982199
289.4504238
286.2274454
286.9313509
291.3236849
296.0027177
299.4504876
294.6723139
300.9676748
298.2534465
294.4895121
320.6958778
309.690218
305.0328662
312.8483753
308.8750385
310.0551131
301.0877499
282.6245083
288.6565049
309.6065758
304.595916
308.5398601
302.049877
288.0647239
301.5438003
290.1176751
281.9883611
287.6432979
291.1557068
287.0075418
291.816778
305.5376116
301.5718723
291.171499
336.2221183
308.1793546
300.1821468
297.2334326
295.18502
317.62629
330.6512629
329.1536554
297.2009833
294.2023838
270.5579219
277.5951778
273.8274378
271.7444197
297.6534544
299.46717
290.7185663
304.2572712
324.7762181
344.5264409
314.7187226
320.2463695
312.0823565
291.39849
294.4641363
296.423373
299.0764368
286.1993433
295.8237023
291.3038485
281.866283
278.8879826
301.4067683
287.0955532
286.2631744
295.278891
297.1437086
298.1668763
315.7914253
305.3391958
313.8254847
309.4223881
302.7006238
306.9628014
305.1754263
321.4875101
319.3012677
311.1955242
305.1082996
309.2390492
293.4676041
297.7672688
296.5871578
294.999224
299.9764219
302.4251488
298.677404
299.2898716
294.6508797
299.748758
325.1349211
311.6345583
303.1597203
288.689903
283.4107173
280.3705628
273.8657758
299.8868024
299.29904
297.0132772
292.7326504
306.4966301
313.367021
328.5949465
308.6091603
312.001563
308.2059539
300.4243378
303.9617083
323.8389357
308.4916717
299.7667726
305.0265141
325.9178847
309.8543038
299.3185764
294.1253181
299.679054
299.4507312
303.5116923
306.0276231
294.9499652
302.3782266
341.3938203
351.6389248
344.1792738
324.6832253
326.9607841
329.4969964
330.7698239
314.2392375
326.3956296
307.3515502
297.9582168
295.315498
306.7386451
316.658354
313.1232054
315.7515965
297.5984848
301.028483
289.7638229
295.2979746
298.650926
306.6950925
311.1151006
298.3660048
308.6351809
294.6075557
303.8125264
310.1611507
295.3568131
291.7695643
306.788351
304.2922257
309.4950631
311.6308223
310.4864505
331.5231959
328.7935651
312.6287559
295.775631