/*--------------------------------*- C++ -*----------------------------------*\
| =========                 |                                                 |
| \\      /  F ield         | OpenFOAM: The Open Source CFD Toolbox           |
|  \\    /   O peration     | Version:  2.4.0-MNF                             |
|   \\  /    A nd           | Web:      www.OpenFOAM.org                      |
|    \\/     M anipulation  |                                                 |
\*---------------------------------------------------------------------------*/
FoamFile
{
    version     2.0;
    format      ascii;
    class       volScalarField;
    location    "0.0006";
    object      translationalT_mixture;
}
// * * * * * * * * * * * * * * * * * * * * * * * * * * * * * * * * * * * * * //

dimensions      [0 0 0 1 0 0 0];

internalField   nonuniform List<scalar> 
5120
(
297.347407
303.1309998
319.1215945
306.7991063
306.0690845
313.5992254
301.159688
301.5485629
301.8396535
316.7117322
312.7781328
302.1003186
301.7581396
297.7267207
296.3744117
299.1601906
303.9475886
296.1957586
304.3982933
290.4400679
289.4763086
288.1996643
284.1365496
288.0616889
306.2462077
290.7230722
289.5369698
291.032628
302.8010433
294.9689194
293.8711922
286.741541
298.8390755
308.2655344
302.4582988
307.8566302
306.7675598
309.159187
311.4593583
314.2455507
316.9829341
315.9288067
314.6214554
306.6195241
306.726564
314.2403491
307.5449389
303.3135241
292.0412107
293.0899017
304.9505704
303.4174447
306.9725725
309.2468234
308.6906137
302.2957829
292.0608161
299.8016665
308.0876378
310.3601158
296.6043163
287.8058943
286.0422903
283.5301201
290.1776942
277.4855368
262.2221288
270.0385163
296.9239734
298.7225283
287.5587752
299.3325749
300.5409107
301.1397052
297.9854168
305.2598266
298.2506002
297.1966395
289.4037699
291.4577373
303.9222918
312.0712283
304.3883658
298.7737797
286.5013054
293.7022674
305.6267617
303.0830502
294.3377719
289.3718005
282.0309005
295.9753869
297.631701
298.2999116
275.6134916
271.8781392
279.9008762
299.7822227
301.628422
297.0082345
310.1161946
299.778624
304.22555
292.987592
291.2040679
299.1296348
285.6964091
276.9923078
285.6796944
289.1524339
293.0341089
295.3692544
290.8591047
296.2600692
302.2098886
295.1865303
292.8502345
293.0872585
292.2212923
308.1327944
299.5216293
306.5067279
298.4439989
309.1047625
321.4294299
302.7779244
309.5556758
312.5027077
309.2690568
298.2296545
299.4444679
310.1838859
307.6092444
299.7781689
302.7555165
318.8343266
317.5361507
314.738251
319.1004158
302.9670346
288.1072435
274.2722844
290.0990748
310.5083744
308.2483053
306.8824049
296.7436542
303.8204356
313.8679335
316.6363197
307.3667145
307.5251505
305.9900229
316.1440436
321.7592849
307.8722342
315.2479144
318.5290428
305.7634623
301.4365446
307.0340826
309.4728217
313.5485553
290.9265361
283.1662724
278.4014146
290.9311664
280.2632805
284.0449552
296.2014947
284.1151653
296.7892424
309.8700055
320.2106899
316.8393939
316.5339187
318.8753855
292.2436655
289.2686884
295.0478319
291.9531544
291.7201157
291.3265403
302.4748039
319.5885799
314.5715692
313.897862
307.1553867
297.7567977
296.7792763
303.5978886
304.4376863
299.8879458
300.8361729
311.3848649
305.6808368
291.4732106
308.1763283
319.0875622
304.8058822
304.1252208
303.0144361
278.2575257
293.3512458
299.2144339
312.7412832
312.7983218
316.4518179
311.9929822
309.8361929
302.5102123
307.7954377
306.4804473
304.8516759
307.0348946
300.6117217
305.6588012
308.097867
305.2743277
309.848528
290.7085852
297.3456269
308.4511198
306.5732401
301.9110029
308.5088361
308.0673938
308.7371786
300.7475313
296.5127278
293.8510316
294.7285589
300.2218553
293.5558358
287.9892854
289.6531219
283.6111477
293.1329482
296.7899881
296.358262
294.0855778
299.6018922
300.5409376
288.6057758
295.3120468
305.5568955
300.3196704
291.6405386
280.6564209
297.4344194
306.9240177
295.6787096
294.5544516
299.3477941
299.9127647
300.14926
290.5078806
289.3650415
299.3444455
291.2824182
312.3873285
317.8302334
303.3852438
307.3850333
295.9153917
305.6057513
301.2659356
302.8738886
307.4643295
311.0786585
302.5244786
299.6521293
304.6080517
291.1716539
299.9138644
304.5147831
305.1953512
291.790526
285.784974
307.1110444
286.8067681
291.4779842
290.1266864
298.0473764
307.217871
310.2299658
305.5717674
304.7583672
296.1409908
292.307586
304.8227434
295.0307955
300.2868692
309.6501195
296.988923
302.7561548
307.9454379
318.316202
286.8717676
292.6460755
309.3124094
308.9871158
304.6334064
297.1031795
303.218573
299.874958
299.3823436
296.7174092
303.3433737
309.7781826
306.6314829
314.4402926
311.6701356
307.6500029
300.5408637
289.0309152
286.1577168
293.973236
305.1604563
308.8971701
304.467928
297.4313447
306.3867652
306.6442895
314.6982382
317.1897794
307.0928413
311.5448225
318.2463013
294.0788662
305.4549095
300.8608677
314.345394
311.0130315
308.6456438
304.798197
305.5863854
305.7801669
295.4279118
295.1963332
301.0245847
300.9900194
303.560874
302.1064987
298.9403718
303.5862655
314.8287306
316.3176497
307.561434
301.647462
301.9437309
292.0135889
297.8227991
306.3963962
309.4286469
308.4299037
317.3312473
309.8484648
308.1676915
297.2522963
313.7756128
317.6504521
315.5123691
309.5264178
298.7635986
296.3487573
305.4831709
302.2187828
305.8521277
304.5637742
297.3775641
304.7091921
297.8200424
300.4321991
297.6110598
297.8192682
303.9791148
304.2328017
305.8834081
314.2717665
294.4420586
297.6585762
308.9565809
308.7215997
296.5621542
310.4961739
293.9600068
293.1021253
287.0229999
287.8517468
286.0357171
288.5320431
297.8933949
299.5712073
292.7125335
292.9046607
292.0664124
291.211451
275.1549028
282.5222614
278.1344467
273.0920395
296.7726615
289.7058377
287.0384453
286.8916557
284.3189715
290.566892
290.520584
298.7712295
299.7762879
298.4910078
306.9004613
298.0274991
289.8475886
293.3266931
284.3617883
294.2372558
293.8321869
290.4312323
314.1973205
307.0202147
295.6278486
297.0934852
302.5550449
291.3208116
303.8001533
303.7708758
309.9831025
294.484157
303.7759388
298.3442461
295.7881259
296.9069722
300.4835299
315.5958949
331.6995657
319.752486
303.7982419
305.4795497
295.8095108
289.3656432
291.2217249
283.5270823
280.2754122
295.8181572
297.7095207
299.3790632
294.8446853
298.0031612
300.1783231
299.3911591
312.0108576
301.6478597
297.699382
291.925763
288.8213036
301.749512
302.5966269
291.5584871
305.2569967
333.6189268
313.7168131
297.758529
297.8630695
313.3790843
310.5939845
302.3680875
304.5429628
314.24286
309.1632124
301.6571026
290.9882869
289.3970493
287.6157937
289.2050666
288.7039372
285.5808961
296.9697177
292.0532047
301.041127
303.6037576
295.5914371
299.8127677
302.386101
300.7331112
300.724076
303.7479613
302.9533987
300.394815
299.7116287
310.8407566
309.1238318
302.1797575
292.8538872
299.9010797
302.7716704
304.5383246
303.1230223
301.8296106
310.8414414
315.3168408
299.984145
298.8303077
304.9150891
300.3277123
289.3476867
295.537025
291.4118542
290.6558546
294.0080206
297.3186329
293.7725403
278.501971
276.0222317
298.1239084
309.3783732
314.4056474
313.5908845
304.0978885
300.2006707
311.4053532
319.5284668
306.8933042
297.0844813
289.1273365
302.0193188
309.8370879
309.3738536
303.5701192
302.4136389
304.0645963
313.5287276
305.8829202
328.2353709
316.9951415
302.9890901
294.3066403
281.955446
291.1085892
278.4119719
288.4825284
304.8982086
302.3174566
296.2892268
301.2896677
303.5672765
307.2034251
327.4776834
325.7225512
313.4920334
313.4436432
313.5275851
307.2839659
306.1368602
314.8300516
298.8012043
296.7833836
287.3465752
281.3813303
307.2278856
294.6049434
296.9370114
321.6872311
314.1940117
306.3377689
302.0115156
298.3437446
299.3723335
285.6251801
297.2429527
292.6173151
284.2696549
291.0121579
295.9976939
288.9528982
293.3424537
301.4490722
295.9284787
304.3314048
316.845096
317.3426372
325.069178
320.0987417
311.8649378
296.9671424
300.1199358
297.2509294
299.4711487
310.0620559
304.1878163
290.245901
300.1354384
304.1978242
304.1427875
303.9791552
305.1012077
317.8730685
320.8799553
310.2071639
299.3484881
307.4386168
305.7288594
312.4168905
326.8815784
312.6943213
306.5746412
296.3892485
286.3815394
277.4043286
284.7140278
310.8232269
300.8462446
286.5561917
300.8694782
310.5092104
312.2063269
314.5186962
315.4434426
293.7699517
304.4561721
313.4802514
320.5559697
317.7279801
310.759329
319.2132
326.6666089
319.1625138
313.5023272
302.6607974
292.6899608
283.5434581
270.8101806
289.4807853
294.7160993
297.0991558
297.2423528
291.605445
301.0745202
315.1507795
290.0392025
296.6837631
297.9447543
298.9045561
298.2859289
295.9730083
293.5741375
308.4774442
299.383662
297.3090249
296.3055242
314.190692
315.1115788
308.6590652
301.3223359
291.6604463
296.410073
287.9784343
302.3810405
298.5575707
298.8900594
293.3731028
281.354252
269.5335426
282.5078075
294.9481365
282.1963664
278.0787889
293.199674
297.5298404
294.047618
289.5351449
281.970709
277.3291635
295.3276716
281.4754523
289.3298842
288.5179183
288.7984134
295.2633122
301.5974329
302.86261
299.3139182
311.7233231
310.9442291
310.7854624
306.8080868
299.7071686
298.6301661
286.7390027
297.3753704
297.9784653
293.7602363
287.8299121
284.0517381
281.7765273
307.8779463
292.7763617
290.8123721
301.0048425
288.1694311
277.8164357
293.3683495
302.9721376
307.4166822
304.8692611
306.348102
297.5972767
305.2726444
303.5149952
291.8890805
279.6524456
285.4468359
287.5830914
293.9788074
295.3739431
292.3747313
275.7422748
300.7039658
300.7697156
292.5176178
294.8386634
284.3237116
287.1644704
282.8260524
295.7988106
297.1241383
292.3732448
299.8144651
288.5688728
288.2515143
289.58516
285.9193616
280.9271252
275.0062798
288.0602468
307.6773061
306.2374165
295.7491028
290.9577485
299.3766493
284.198537
279.7221922
290.0780589
290.340651
284.9202843
296.3196133
295.926178
291.9456575
292.0673221
290.9512067
298.694086
298.2767985
301.235906
321.3494419
321.9875291
311.7330326
311.4645515
301.3877982
304.3578836
299.0870752
291.1540177
300.4392508
295.2942414
273.1888648
273.0307652
274.2576053
274.4063488
283.3636068
287.4280423
284.7107478
274.9707163
292.6317808
305.745098
301.2861219
301.1114369
302.3656098
292.9628312
294.9719917
295.7530481
296.708338
284.0651352
307.9322026
327.1070916
318.7956487
304.5854803
304.5039351
295.8772562
296.6479046
305.9286184
304.8332049
301.3273401
294.0218815
284.3490361
296.9107808
288.205708
280.700282
273.662919
272.1701843
290.4594053
314.4164498
302.2768004
312.4196581
306.3692386
306.721404
289.1009013
297.0315545
298.1544486
314.5185147
314.4261886
300.2065611
288.6370507
289.8416293
305.3122644
314.1605851
308.1451619
317.8453467
310.8939754
315.5593568
313.2422736
315.7967946
308.237293
307.7765157
290.8335061
289.2848245
316.4501766
313.4318949
297.7123126
296.8359091
290.7180061
292.9434461
300.9525557
301.6352099
318.4948752
319.1591746
304.9994927
294.2830721
304.9770899
310.2201499
319.865
297.5435186
301.2367621
305.9638293
314.2336123
319.1725782
308.8785848
308.8978044
303.9342996
293.9706223
312.4796469
311.3422218
302.795191
296.2924959
303.0160516
291.0588243
299.1225238
296.9558845
291.3129369
298.4732441
295.972081
290.4059749
287.7656486
276.2908311
287.8394194
302.0832506
283.715163
286.5253965
291.7325977
290.2854118
307.4195119
319.1166253
324.8827338
312.7708659
304.2079783
303.9928712
313.0665088
299.4259045
297.0091044
298.4264713
291.8274217
307.7948827
309.249558
313.1509993
302.5537524
300.0048106
303.4520299
293.1834666
300.0771409
294.2455171
301.8634966
291.4350537
296.5551569
309.7602918
315.319301
300.498425
298.160971
295.3207395
308.1994511
308.9817568
309.6305104
300.7550053
289.9283984
284.4985304
285.543297
295.5606986
298.6255548
294.3855578
291.0750978
289.9450798
288.3486082
299.657766
294.9171426
287.6097817
278.0228487
296.7545871
310.0083242
299.6777391
289.1593849
294.54623
305.3428464
290.0052415
288.7394194
290.8780992
299.8536544
302.7761581
290.9304099
281.4561419
288.8973222
288.7127519
302.1039379
302.1878464
295.1962394
295.4064453
292.2694292
281.4874759
278.6467889
292.0092132
295.0961584
288.8726348
291.6146927
303.5079095
309.3552097
301.5219512
307.682788
318.0411475
312.3481731
294.0452873
293.6402127
299.8971391
296.6926288
293.5327797
298.406186
312.4596815
299.0286539
292.143914
298.2220779
283.7925457
281.2012728
278.8155043
283.5439307
300.1780818
298.5779317
309.6864076
309.4481311
307.3411787
298.2561006
294.6735659
292.3460489
292.6803499
286.6780747
289.7607279
284.1104243
294.1591141
298.8504599
305.0614371
294.3191294
292.4060289
287.9748259
299.0202568
287.4737092
287.5595297
295.9172863
288.1736748
299.1645387
302.4354145
293.5597498
295.2319991
303.4330719
289.1471228
297.8658732
298.8452305
297.5550015
284.3639195
290.9255749
282.4091091
294.5848414
288.2352997
284.0646672
279.2272874
284.2872157
280.9829218
286.6536889
298.99544
286.4098814
269.7737435
272.2642854
286.6483859
294.1372794
296.2534199
296.5191874
284.989171
298.4391127
297.687209
303.1041425
321.6886212
310.0388406
300.2037608
302.9516102
295.6548431
291.2329212
275.9687497
280.8230167
289.3220751
293.3532061
293.5663162
282.0521173
277.24405
272.9510948
268.0004282
280.9557723
290.0978037
298.2567718
297.3871605
292.1316286
285.4841065
290.4273066
280.9016849
286.2353997
289.5557279
273.9052984
290.7942306
273.7221594
270.8710452
273.5053315
284.7439092
294.35424
301.8321248
304.1453098
309.3031889
298.2085079
298.5535467
294.8901236
289.2319934
302.9318508
301.6262385
284.6020652
280.6809814
270.2795662
280.2246781
285.0069651
278.0273049
291.3913655
293.3546801
299.8418049
296.1674825
292.9872946
287.9164738
288.9705806
290.1252779
283.9132843
295.2600123
286.0647702
290.0334655
308.4438013
304.9562591
315.8983451
295.8706778
281.9249122
291.7627878
292.9653658
314.757246
310.7936963
297.5521622
301.2668936
300.9534319
312.2114864
302.0428489
292.8280498
282.8854705
275.2827487
282.6890987
280.5101314
284.2150217
285.3844212
288.7523613
291.8898876
316.5238549
320.192338
305.9201001
300.525835
304.8071459
313.9858036
306.0675111
298.8118071
293.9944167
301.7459799
298.5435307
285.2003874
294.4254604
295.2014686
298.3402372
303.7004188
301.749102
296.5010567
287.075194
287.0198514
278.3496144
299.0500644
302.2541918
306.8669741
303.9510458
297.7745949
285.1632044
289.8501614
291.4647613
297.1969511
291.9117339
300.6154475
296.9021474
291.4720442
299.2370107
292.362497
300.7105522
300.9268594
304.5565005
293.3590733
282.8856161
298.3788395
308.6686355
307.8036174
295.0836053
310.9528579
308.9996579
309.145841
309.249504
299.2107845
297.7817781
302.3348156
299.0941714
295.1113866
298.8843144
301.6989098
302.8843034
290.4521781
283.9889805
291.7735053
303.8580656
311.9364287
300.1341825
306.1950226
312.9533021
315.2456023
299.6836078
293.8164687
284.654057
293.5796472
300.2105119
308.1923149
312.1436108
322.9806739
307.1874971
316.2540581
320.4053152
305.0811979
290.1556877
287.4754715
285.5299252
298.5269106
292.9090202
296.9853572
288.5778569
283.2474965
298.7956313
298.3468951
293.108619
297.2623758
292.267147
304.7310289
311.6751577
314.0150332
319.6295968
323.0872015
318.2195341
314.7418261
315.9711734
312.1109602
304.9218391
306.7128564
308.2845732
300.9598854
307.4690134
312.5449277
292.0971773
298.8359523
301.8215233
295.1980096
296.2722702
300.3031831
302.4274093
300.3928768
289.6577769
297.9100794
313.1008357
321.9203588
309.3730898
301.9994203
301.494926
313.9596548
309.7254633
314.2015556
313.8984276
315.9535608
305.0369817
301.0011533
290.2140536
290.2299496
300.8450938
307.6714646
309.7766844
285.2929795
302.0181291
307.0652838
309.0606316
302.4570158
295.0315001
308.0311897
324.6923978
318.5933586
321.9732253
307.0607571
310.4772069
303.3945222
292.4139074
290.3145246
282.1511775
293.7232919
303.4173337
293.044008
304.788354
318.3007295
329.5147546
327.2923549
315.1269898
320.2612444
331.1448049
334.8132927
311.1137246
306.178234
306.4044289
306.97983
318.3961144
311.9909857
314.6650998
287.6574873
283.1944596
288.0998153
294.0469019
283.8757354
290.5876604
301.7042257
295.3736296
285.9777629
294.1018472
298.9440496
293.9298708
292.9717609
303.2867921
298.9465711
301.6769962
317.7986343
300.9327869
293.740649
309.125759
308.9498465
309.2477341
299.2411232
306.888466
297.0892871
294.2635783
297.4882686
304.7706323
300.4359456
293.9801348
300.0181367
304.1780131
293.5420341
298.3908005
302.8701308
296.6561786
305.1436461
296.8794979
304.5990534
293.1786677
298.7413547
302.2009354
295.9989008
288.3047101
288.8980458
291.9671147
273.9668351
283.8635159
286.8748245
292.9499861
287.4063098
288.1875978
294.3479298
297.656426
282.5034506
292.7699667
286.1070995
295.0234359
288.2943271
298.382205
287.0449061
293.3883493
295.1742039
292.7448868
294.2358302
291.2336475
299.1413548
303.8448166
300.809329
309.1672281
319.7363182
310.0194672
308.5514792
306.6352694
309.0043949
312.9188289
300.5049011
317.5882276
311.9869263
305.2684931
302.958524
309.0277517
307.3995782
294.9399199
303.8529756
300.917395
301.8498831
301.1246641
300.9525957
296.6370773
295.2967693
292.7122081
288.3568018
297.2826343
300.1305545
304.0051424
314.1554661
308.9999048
294.2191971
301.1230625
288.394839
305.6616115
315.0127483
327.0500608
314.8992534
303.9683694
297.3384638
312.3084549
312.8329166
304.3608494
297.229833
289.1004535
293.6214084
300.2759788
299.022222
308.5676476
306.2395311
311.4688253
322.1247268
313.9298179
306.7207027
285.2844909
277.8158676
272.5761924
286.2172621
294.7257467
304.7321849
290.785134
295.4943522
289.137381
281.6377465
272.787101
271.8248646
276.6765392
292.445757
297.2149234
297.4906982
280.6242601
290.0278044
301.3681557
308.7063592
319.8454286
308.3934539
315.139374
313.0271015
306.6177084
310.6798269
307.8359769
302.3313942
291.619416
298.7861353
293.8788591
279.906164
271.5036819
290.7598879
302.4542447
285.7681103
301.4910817
292.6772085
301.93974
298.9703607
311.9804191
299.2647538
299.9648785
302.2485049
293.9129459
291.9617164
279.9823607
279.8385627
285.9078187
290.2080997
289.5941025
304.1169495
308.1800295
296.2536263
293.2271751
299.6367708
295.5329017
314.0767839
301.4092723
286.4429214
285.7728075
300.7307175
282.8237999
273.9567329
285.2222223
284.1343176
292.177639
307.1544854
296.3625375
296.9572055
293.1614701
293.0173852
300.1368815
289.8473008
284.4955643
287.6524352
286.1445717
272.5871765
291.6189414
299.4628545
310.4498946
304.0276898
306.4905236
299.5050642
303.7771307
302.6784848
295.0444087
311.6018778
301.0143505
300.9159743
305.8813342
307.5111162
311.5665127
293.3755311
291.2408621
281.5829517
266.702402
272.7038017
283.4475401
299.2299912
309.1172375
291.9851358
314.7353548
316.4114868
302.4731681
296.4267091
300.1757504
289.6190485
299.6122934
304.5647753
302.3209822
299.718312
293.8116106
282.0307231
285.2426357
281.1077857
284.2926146
276.8836673
290.4742589
282.7179131
286.9054159
292.2126009
301.9731236
296.485673
299.9499273
307.930104
308.505408
294.819859
285.5439977
289.5767032
299.1276971
294.4373885
295.468146
298.0314996
294.271088
280.8425963
283.1166395
284.4711603
280.1168854
289.729142
289.9708605
286.2199107
277.7445431
284.8267571
287.1158553
283.8992883
283.6082129
288.8047539
294.1413056
299.9732244
310.9013297
324.1615566
318.1416518
309.0771452
288.9521232
290.403918
315.3062552
306.253088
312.6831256
310.0441695
311.6279105
317.9930765
328.0857187
323.012108
310.1090777
318.8570615
307.3372053
305.9304021
297.2834003
289.3721908
298.9750858
308.9254694
301.5330504
300.8720724
299.3533265
318.1851451
297.5769518
296.3152706
289.1804322
292.1190837
303.2971824
287.5025948
280.5933919
295.946102
309.6645655
312.4900683
303.9958605
309.9690841
305.6333544
301.9555473
305.8728941
303.621077
297.2262804
305.3298169
301.2129293
294.2385143
306.9967259
306.9447342
305.2671702
310.3302055
319.2915151
309.9897191
311.0595351
311.288449
311.3872836
297.8508844
297.8876583
304.5407955
296.9862142
275.9301326
285.2909851
305.5328531
310.426386
320.756868
329.2071552
317.5925216
318.7011848
311.7542697
293.2241906
283.7158176
284.2792853
294.8019899
286.0821532
292.7820913
288.6219581
302.7265923
284.5670361
288.0600615
288.429175
299.3626562
283.3670198
268.7526442
262.0441229
284.0388045
290.1640189
311.313291
298.4960778
287.1326493
289.6163699
283.667422
277.6953184
286.3708645
278.2872515
278.5699891
280.1931674
287.8527554
288.5346942
289.9767472
282.7689247
281.1844983
280.3598444
289.1642251
286.6027129
288.6701298
299.4844437
298.2587534
315.2838425
310.352625
292.2468129
294.1983233
286.0042332
282.8122276
296.9199276
296.6515152
306.9906914
308.7843817
302.5556244
311.950801
314.5531863
309.0301986
307.0427344
306.552904
314.2743862
321.9737827
316.5667118
319.5013444
302.9476393
284.5939945
304.9311917
314.6505022
321.9991571
305.3947539
301.0732378
303.8211605
310.9957686
299.9502505
305.5762949
303.593602
298.7823226
306.6820292
296.1588522
294.4233149
306.294293
305.879814
313.5513014
305.1148461
285.5130115
296.1541363
307.0181611
298.9433969
286.6765692
287.5816611
291.9761728
288.0674966
286.5400044
296.2302144
296.5201963
321.7269701
312.705896
294.9183929
307.0184972
304.7394998
306.5939748
299.2633873
291.1684472
290.5719341
296.2118731
296.4087109
293.4681896
305.3332285
305.3239487
308.579609
307.4449124
293.1740393
283.8701902
275.945457
284.853965
283.722926
280.7300518
285.2213451
294.3258855
298.6595139
281.1550756
288.1879977
294.0503294
298.1007029
300.3279658
291.3002793
299.2075084
297.8372725
292.5823221
298.6616349
298.1269644
291.5367468
291.6277526
292.9466323
281.8994204
273.8746439
283.6692809
284.3065393
288.7061601
298.6761082
308.1549023
300.2314783
292.261023
297.6290561
289.6365447
288.6885594
296.122036
303.4843187
302.7261931
303.8569563
301.2253153
298.270573
302.2998302
306.3193479
293.0249533
284.6789604
292.2782726
299.1098385
307.5612435
312.8532198
308.2259262
306.5363746
304.8467539
294.7886185
283.2680445
285.6779223
287.876019
297.7107525
292.2759319
300.1450347
299.5379494
309.7959881
305.8476844
300.0377346
294.4315334
284.8537853
275.9066973
284.7259931
291.7012556
276.6072568
290.7482505
291.7694444
293.0072037
293.630816
276.3942237
287.5383757
289.0177828
303.8851056
314.1097857
286.6913409
290.7673466
288.2300354
300.2867971
304.5643693
298.0060476
290.0076955
295.0820967
288.8560949
296.567785
315.6642797
307.8174431
308.4867583
291.9213457
275.0996004
302.8957851
301.5648856
294.4032539
278.9000107
297.6615608
306.0507019
301.5461386
296.458554
292.0065452
306.6652311
295.5196389
289.4056444
301.8408396
317.0945756
303.0665949
297.6718295
281.5237368
284.499751
286.7391269
296.110644
311.8931911
311.7766187
302.312218
309.3188833
305.6822033
301.3515748
296.4374236
306.188253
304.5530099
296.7149127
282.3227138
282.3016515
288.9813279
308.9913669
310.2189399
311.0238912
304.9766504
293.7022976
293.028817
302.6077909
300.5545604
305.7430623
309.895598
295.3866123
302.069758
297.1029953
301.7167723
290.5047238
281.599645
290.0908181
297.0642464
294.0340003
290.3003614
301.7930311
308.1307476
291.3352699
288.78851
284.5488119
287.9382186
288.2526086
289.101135
300.8127781
315.7703542
310.0406715
310.2781994
311.8186674
302.8153417
326.7401238
325.902998
305.9320219
326.0781381
314.1942325
319.4695449
312.51682
310.3734202
302.1984984
311.2119023
324.6636638
320.3150957
296.3257181
299.2924998
294.720085
291.9088832
302.6335053
310.6151355
321.2653715
324.3899217
313.5915223
295.2854099
308.8245084
314.8781378
299.602588
307.0695562
314.7409875
302.2230941
303.6212641
297.4358823
278.745194
280.6206696
286.7749149
280.6140769
292.0065984
287.9741144
300.9575527
309.4228234
304.1488704
307.9248947
319.5089283
313.6654641
291.045346
295.4897388
298.0778496
299.6169121
290.6350097
301.0068498
301.8647735
303.1339358
317.3073629
300.1944454
291.7844402
275.7370756
281.5249518
291.2628847
280.164161
280.732324
277.9764768
286.5741331
297.7681264
301.7641119
296.2549751
292.0076261
296.2295893
298.2758068
303.800668
304.3120008
305.5967311
315.4997868
310.8783431
294.9522602
288.5422565
292.4374078
307.4159746
294.9005515
292.6723611
287.9952753
292.0101245
296.8594516
283.4161049
283.2520029
288.8104654
291.7874688
288.3876317
288.7726861
282.7066128
291.5978771
278.7992981
278.4178621
292.733215
282.1751739
276.8498284
294.7619256
293.6454411
307.3941315
304.6287561
288.5031488
281.4858385
278.480098
293.5885103
295.7742435
284.7034131
280.7403535
288.5264852
288.4266536
296.5827964
294.9323121
302.7141058
298.4590905
292.0279854
289.7591056
292.2846162
299.1760341
298.8198941
298.4920179
303.9273853
309.2387633
314.4822225
321.2435654
304.0549472
296.9205637
306.1074072
298.4081603
292.7021983
315.246375
310.485383
330.0517021
324.9582108
314.4762462
310.5521915
290.618026
300.9818713
305.0485844
312.2641836
294.7459629
291.0830813
298.6331595
292.3467665
290.682009
302.8026268
301.3003609
299.449875
310.2871003
288.2841675
297.4692436
303.0034658
298.0838113
302.8048403
315.6496319
309.4360961
299.9533665
301.6271145
283.0001571
277.5269673
292.2812209
294.9031838
292.4711587
286.2418853
292.8642727
300.3237768
303.8939891
307.3502485
313.905856
309.8801613
289.6124781
305.3738395
302.5580779
305.8991852
299.0416521
306.4487281
295.4440479
288.7586921
301.0324596
303.0520031
299.3637507
300.1767845
293.1197067
288.8370196
303.5438063
307.6428527
298.6283666
294.4464899
302.5129236
307.2636088
301.7075173
292.5645155
293.1899617
281.0259223
294.8660382
294.7845271
297.8443099
303.8927788
298.6589504
317.1960907
311.5354943
305.8938867
319.1082373
318.3914408
305.8503718
289.7674582
285.4714901
288.9043483
299.3108166
303.8874635
312.186402
312.5071037
316.4269345
314.1558622
291.8483848
299.7025748
305.4202384
283.7331256
303.1908752
293.1589233
290.5393313
288.8820199
312.6792522
314.0673482
317.742732
321.4615464
308.4811517
319.8871788
318.9157525
319.8558388
307.9227207
299.478319
289.3738209
285.7296953
301.5268682
305.1026069
303.5395342
310.9605145
298.7618769
304.9729182
308.0366897
297.652733
283.162203
288.3702262
281.2628649
276.7630498
274.324354
278.0622946
276.9140642
296.3327156
296.6252583
302.7853883
289.4809423
290.9655942
300.0524271
303.7705221
304.242327
301.527953
311.0982019
311.4588609
309.1105902
320.4763694
311.6235735
303.5309985
296.9883207
300.7582927
298.8997122
293.9666833
309.5695647
309.8833227
298.9739638
283.5848321
275.2078757
278.2885244
284.220996
291.7966797
306.7404013
312.0062016
309.0437088
310.0822872
305.9455933
307.9655027
302.8506473
296.6823406
293.8035106
298.2981526
298.2319202
295.9533613
305.1419077
327.561659
320.4760632
302.6640971
286.5591316
284.5448636
295.6380944
306.9901948
311.1662982
314.3296272
288.333196
285.8272269
294.4547548
302.7492951
308.5404825
325.2390864
318.6872112
302.7519635
304.919338
314.3225964
312.2653688
314.2383104
307.6810022
299.655636
297.9325858
287.3088516
294.6538216
303.3424903
306.9329488
297.1172598
294.1316477
298.9025575
293.1837017
293.496174
291.4521663
283.5811095
297.0163697
309.0969081
306.9242615
327.1614607
311.9641449
299.7323321
292.3859681
293.4887687
298.4638758
306.46268
311.7179032
302.1066911
294.1533542
286.496951
297.6602179
308.2668765
313.8589146
303.9703173
299.0266254
303.5133332
300.7390368
299.5461153
315.6865095
311.533672
304.3700151
303.5987815
312.1157023
304.9354538
291.0824403
285.0721523
279.1996348
295.0850892
291.656114
287.8435188
297.4825001
294.5787395
296.4603329
299.0329799
302.4711018
298.5669761
318.2745055
310.6618941
313.0735289
303.2198818
297.819903
297.5641932
298.4460797
301.3488871
316.1688372
325.3607471
305.366895
295.2793461
305.7245706
296.354346
319.1621295
299.7911049
297.7363241
316.0385482
321.1548746
315.1165816
313.2655263
313.0930769
307.8658094
312.8208131
331.0686752
308.4209784
296.8701989
316.5189531
322.3206299
309.4297279
308.3497492
322.5998058
332.6030039
331.3904551
306.081335
298.5875383
298.0344379
301.6523919
299.5161648
298.8628147
309.4430602
316.5958148
305.5936464
300.3243163
293.4217492
313.5569342
305.3879037
301.6787988
295.2531576
321.8105408
310.7079219
299.5306167
307.611618
303.9535723
287.6894945
288.3220687
291.6738147
295.0993216
290.2786109
292.1518761
292.9105314
288.6686758
289.8926745
291.934157
297.7968469
295.7694437
294.236372
296.8110387
296.7272784
289.2504753
307.680849
298.3301165
293.2064316
298.5649619
310.498629
310.4187355
304.4551016
289.741602
300.1198841
312.136825
303.4049045
312.1014665
303.5797175
290.1282147
303.6229887
294.6322986
289.5681406
294.6723004
298.6494402
294.914967
302.4733539
310.6745014
303.4706777
291.1276968
329.4452375
308.4840732
300.970454
296.1579262
295.4513993
316.5014234
327.966408
326.9678287
303.8706124
298.556591
274.886812
283.7447785
281.2882441
285.1249702
301.5035722
303.7640371
296.4117583
304.7324044
323.7756984
334.5987615
312.6394362
310.3147427
306.0397807
289.4483479
288.4341491
288.8403884
291.4744624
282.7659636
291.4065034
293.0380525
289.0896587
291.034211
309.8862482
290.4215827
295.1916211
304.5280395
304.8973937
305.7454689
319.2528727
315.9035422
315.3695764
309.4245339
304.9551808
299.193465
298.9129638
316.5601072
311.2739775
301.3242009
298.3218239
297.5213533
287.6001569
291.9288263
295.2245028
300.3269206
303.4947237
301.086008
302.1593429
307.3185039
299.1057514
299.8057608
318.884482
308.3058156
303.4766067
293.6255496
292.1497024
286.4960647
278.0683503
299.8228579
301.2274644
296.3141767
287.611101
301.8977877
307.2037948
322.9353863
306.2873988
310.4793594
307.8085038
301.9273264
309.0183596
319.7110871
305.1425151
302.6651241
302.3843227
320.8704343
304.1192769
295.7062131
297.0749485
302.1833331
301.4371304
301.3130212
305.9251966
296.2208025
303.8863139
339.0598469
351.5123588
335.1269627
316.5606283
316.6122822
317.9858766
317.3261841
309.4838664
324.1987578
310.2521119
299.3941118
299.427068
310.4870577
315.9234346
317.9164704
312.6172175
305.8186217
303.7958609
292.5373576
299.8702007
300.9921347
307.6272085
308.3568742
292.5383852
298.0593099
283.48297
296.0619981
318.9909993
302.316345
297.0013065
304.2390505
305.036532
309.2640448
310.8061237
312.4372665