/*--------------------------------*- C++ -*----------------------------------*\
| =========                 |                                                 |
| \\      /  F ield         | OpenFOAM: The Open Source CFD Toolbox           |
|  \\    /   O peration     | Version:  2.4.0-MNF                             |
|   \\  /    A nd           | Web:      www.OpenFOAM.org                      |
|    \\/     M anipulation  |                                                 |
\*---------------------------------------------------------------------------*/
FoamFile
{
    version     2.0;
    format      ascii;
    class       volVectorField;
    location    "0.0006";
    object      UMean_mixture;
}
// * * * * * * * * * * * * * * * * * * * * * * * * * * * * * * * * * * * * * //

dimensions      [0 1 -1 0 0 0 0];

internalField   nonuniform List<vector> 
5120
(
(1947.105034 3.578623976 1.163668797)
(1959.233177 14.79992213 -1.227334503)
(1974.650991 23.29553547 -0.8242906967)
(1983.178216 27.49626768 -0.5044204202)
(1982.985245 4.401077767 -1.489538157)
(1972.12983 0.6990829179 -4.933895181)
(1964.278353 -5.661821055 -0.7435259409)
(1957.221533 -3.121546354 -5.00519586)
(1950.088815 -20.91728547 -2.058367407)
(1946.766084 -28.13859129 -2.047846107)
(1947.450834 -33.94115496 -12.10307112)
(1954.947187 -9.491704438 -7.232752324)
(1945.067086 8.960903999 8.437263012)
(1956.218348 10.25906102 12.57752447)
(1951.967912 15.49403224 15.37905667)
(1944.443138 3.710999625 26.41728783)
(1943.333786 5.635365233 17.55851797)
(1939.169414 10.04635636 21.55980998)
(1925.320739 4.285411346 7.388969321)
(1926.205625 11.50329084 8.269372789)
(1943.097351 -8.974334654 3.321705593)
(1934.082113 -3.424653792 8.119940481)
(1941.846938 -10.89453122 13.88442467)
(1940.412019 -8.799122436 -1.739897406)
(1946.456404 3.259759854 0.1129540486)
(1948.630291 13.74435859 11.21351793)
(1956.230587 12.09712994 19.72881136)
(1951.907107 16.03792536 -10.88436781)
(1939.7664 19.90795479 -3.044114835)
(1937.95212 12.71662877 9.819783942)
(1946.985022 9.141236994 2.828767084)
(1942.370234 -1.783172636 -9.365187502)
(1937.060184 6.752851936 -1.735304988)
(1939.318525 -2.100752658 -4.440805588)
(1928.803744 -12.11593156 -0.3756913822)
(1932.483533 -20.50207873 -1.241179667)
(1938.942682 -2.403573395 -7.024363404)
(1946.448897 9.299340577 0.9919827066)
(1951.221998 4.937027331 11.23227597)
(1941.331126 -0.8934612753 0.7347404164)
(1937.413717 13.51989352 25.62326337)
(1940.502033 16.00767826 13.01389577)
(1947.692424 9.146342779 15.51240804)
(1960.818167 -9.333158934 7.111136171)
(1953.836071 -6.252334597 13.8306849)
(1951.772055 3.56936947 2.712485123)
(1941.232777 3.491418689 5.504563438)
(1929.257328 -5.219973291 1.274243682)
(1922.722081 6.7440952 9.955810083)
(1925.701285 8.791069224 9.47976366)
(1932.759727 15.81342681 7.360972249)
(1931.902959 25.62767764 2.769832269)
(1924.320449 11.54570735 2.197509216)
(1928.092954 4.19780137 2.520461571)
(1937.622872 0.332957477 -5.545463913)
(1950.585294 -9.046198082 -7.797415086)
(1950.450755 -28.73165716 -15.48894988)
(1959.38122 -26.61360405 -2.443018562)
(1949.894227 -18.60884249 2.982841082)
(1953.417394 -14.82524622 25.39111693)
(1932.503232 3.540076035 8.934281137)
(1939.472496 -4.270751099 -2.379383996)
(1936.157845 0.3405183181 -8.709517358)
(1930.844261 21.4922826 0.5305564447)
(1923.171684 15.15864278 -17.93032503)
(1922.26598 7.900992941 -21.07370263)
(1934.971282 3.938754972 -12.16816995)
(1950.295837 0.4664193154 0.6932263055)
(1952.269407 -0.9771110268 16.49372951)
(1947.544431 1.653042935 9.509686276)
(1948.654608 -15.23994797 8.219534544)
(1958.156009 -16.73272062 9.556015143)
(1953.39546 1.532873855 5.879704752)
(1954.917044 -0.1252710273 -2.458175499)
(1940.916665 -7.391232946 -20.19696215)
(1939.369031 -2.673983591 -17.49374712)
(1951.923979 22.14859943 -12.27612336)
(1953.919711 27.06936455 -7.447139315)
(1953.472185 11.49947241 -2.722102286)
(1941.696083 11.00572207 -2.88943236)
(1936.642193 8.789304136 -8.352518362)
(1929.802575 7.020722623 -14.03608751)
(1942.021072 19.4120744 -4.760869148)
(1952.25572 18.92562206 10.46475134)
(1958.559059 20.2920618 22.03822209)
(1971.462963 40.23676316 18.59233845)
(1971.653677 37.49504304 11.31741228)
(1952.550983 26.47483 18.27715085)
(1949.196576 6.354579852 12.74966307)
(1957.377161 -3.505320105 9.49461007)
(1963.725678 0.6665336518 10.00682627)
(1951.5316 3.780753456 9.134308615)
(1948.720154 11.20983183 4.762245649)
(1955.053018 10.64156092 -7.581838007)
(1958.08954 11.05126965 -15.70206931)
(1957.307695 10.16256131 -28.25042403)
(1941.84002 2.575585873 -17.60349905)
(1940.042235 -5.631887487 -0.8273905307)
(1926.127871 -12.74102838 -8.516001056)
(1933.207559 3.600004997 -16.97478731)
(1957.763443 3.709559498 16.17033908)
(1967.652845 8.720569641 36.75448101)
(1968.880363 28.0783657 24.12180414)
(1971.39604 9.094034799 14.04535669)
(1970.318473 3.853423317 19.60309592)
(1951.757314 11.41080168 9.506365892)
(1959.683479 11.2146282 7.783949788)
(1974.345794 18.13389309 12.73795838)
(1983.738654 24.92338738 9.211524522)
(1975.936933 13.06141405 6.922200378)
(1975.689782 14.4448602 15.55871563)
(1964.93713 12.98695502 22.02012562)
(1982.759318 11.17994057 20.96821681)
(1963.513787 -1.938073054 20.62991675)
(1950.346353 -7.997860022 28.84724049)
(1955.463681 6.225893968 27.36090454)
(1957.47048 3.656119146 30.24884234)
(1956.748898 -7.385836711 14.31157022)
(1974.68801 3.184709005 24.57406437)
(1966.826793 -4.15876516 20.89059509)
(1951.374109 -20.52932081 -2.749386435)
(1956.999608 -16.19556809 -4.307511367)
(1959.181662 -16.89881089 2.928169965)
(1955.536359 -3.574374743 19.2923996)
(1960.881703 16.99988696 10.18986969)
(1964.966524 18.97342967 11.07908102)
(1960.108381 22.40136031 15.18199379)
(1964.738991 39.59294931 12.68814186)
(1959.154654 27.34350684 11.46500937)
(1969.554536 26.78068096 6.760750731)
(1967.053268 7.002115014 0.5693709718)
(1967.041852 7.252734734 11.26717125)
(1946.45152 -0.2290796113 -12.96923283)
(1964.575752 -1.83650539 -22.82737109)
(1970.142694 -4.437682676 -19.212537)
(1947.248456 -4.972760034 -14.14744774)
(1947.939587 15.65830602 -1.77550442)
(1943.310988 5.808544668 4.936472192)
(1946.93954 -6.572293905 0.4033009907)
(1946.807852 -12.36104198 0.2509332461)
(1941.188554 12.11100938 -10.08005213)
(1939.603198 13.57324289 -11.82688275)
(1937.96765 12.56956259 -10.3488007)
(1942.977068 12.06684774 -3.081177869)
(1942.602511 5.115613557 -0.2608475062)
(1945.437355 6.888484182 6.389416469)
(1953.420477 11.37316128 -4.561006049)
(1937.673893 12.59344984 5.738497982)
(1934.031149 17.74208258 1.044312548)
(1930.354526 17.64227204 4.493128011)
(1943.665143 34.42922455 5.658426944)
(1956.490964 23.25327676 -5.34762841)
(1959.232653 24.01429988 1.906089922)
(1948.052609 15.8553456 10.0491156)
(1939.968404 0.8356003125 6.674128362)
(1938.841889 -13.86282622 3.659580165)
(1946.835238 -18.71223347 10.62317207)
(1940.902761 -13.90569703 -2.426136793)
(1955.146827 8.95619283 16.04945186)
(1954.891711 -0.23109751 4.454482524)
(1973.205873 14.39103028 -28.13406173)
(1966.513132 11.26066439 -9.466185257)
(1957.580196 8.820496538 14.0334169)
(1953.96787 8.813420438 -2.856214343)
(1951.680486 11.56137782 14.10200796)
(1964.0986 27.5936025 29.11180321)
(1962.270867 23.45543497 12.91473429)
(1960.430475 8.564242548 8.637766469)
(1959.751787 12.57506379 6.72526296)
(1956.136005 1.331596362 -2.225955378)
(1950.381599 -0.9721253605 21.6495167)
(1952.779513 -9.707728602 16.768532)
(1938.778266 -5.764942486 10.68596963)
(1933.502818 5.016979319 -4.659809975)
(1930.39163 14.33503915 5.876472727)
(1931.031952 22.57450999 24.38616428)
(1936.968672 19.16692466 20.20835008)
(1950.838345 13.56042738 19.40600703)
(1962.667923 13.8700994 -13.12720248)
(1969.908186 13.73564252 -12.27384511)
(1917.611069 -14.09094391 -5.996343881)
(1915.901108 2.697106497 -0.1172961538)
(1934.978874 6.837513536 -5.514920935)
(1937.110472 19.3491596 -9.634847209)
(1938.934862 25.43728631 -10.12035625)
(1936.363413 19.47788219 -6.048943026)
(1946.708455 -9.423639677 -8.43777548)
(1961.909492 -9.174643383 -5.400401026)
(1965.950286 7.013742618 -22.68741791)
(1964.871557 4.804396882 -19.73326388)
(1972.516488 -1.989452163 -20.26895132)
(1967.343721 2.197879101 -15.49430082)
(1959.488955 12.57586857 -30.22728404)
(1943.439705 -1.019384233 -22.28702641)
(1938.167119 -2.828260953 -25.61333245)
(1933.78383 17.13763886 -8.159036051)
(1938.502689 2.926480702 0.09988408587)
(1919.93469 -3.365078485 -2.574900962)
(1920.120664 -17.33313624 8.625681818)
(1926.731771 -27.20283998 3.262473268)
(1943.233902 18.04793966 8.906215222)
(1940.360244 8.273514989 13.60655148)
(1944.768355 2.939320318 8.505658015)
(1944.434937 6.869320141 4.335505867)
(1938.727231 -3.096869696 -12.9463338)
(1941.984408 13.73988634 -6.586040797)
(1936.013115 8.778135262 17.96842958)
(1925.553456 19.21742185 -9.999914095)
(1912.174098 3.903332416 0.2039149366)
(1939.461522 -4.835502913 -2.108796767)
(1933.168132 -1.300821946 12.13503378)
(1929.705844 -9.420016633 16.70120824)
(1938.169985 3.753176095 21.36056438)
(1947.735344 20.31752138 4.309478176)
(1953.636712 38.92510409 -0.4108342094)
(1966.846139 16.1047643 7.242607916)
(1957.070205 14.81977153 8.30212736)
(1961.196225 13.38252905 -2.128370575)
(1960.784605 16.45254975 2.753304357)
(1958.552007 25.52816931 -5.055167119)
(1955.674269 19.1256152 -9.577606511)
(1936.906531 8.231573438 -4.96909255)
(1945.498205 14.63530925 0.616705352)
(1934.384289 4.308750751 9.006999527)
(1937.847729 -1.44425805 5.238796846)
(1951.760294 2.239995875 2.416749909)
(1945.383371 8.387847639 -20.85679702)
(1927.17714 2.4746556 -14.00361308)
(1919.912788 -5.062167347 -3.52321269)
(1929.998743 20.08561698 -14.38480712)
(1942.847724 27.05086472 -4.504450291)
(1936.246798 21.14034617 0.8443903705)
(1931.905921 11.57875624 -1.652544305)
(1930.587295 13.39110979 9.976306588)
(1939.566968 21.51966719 -13.59441675)
(1943.416887 28.55302109 -2.692152608)
(1958.641398 20.67881503 3.35362347)
(1956.205742 22.05620766 -4.589397652)
(1947.496726 4.821855528 -0.1465429083)
(1957.299833 3.776369933 -3.251577759)
(1933.247352 13.9469052 -16.71286346)
(1913.127694 12.94277152 -3.379007897)
(1921.151604 11.08660818 7.741323943)
(1948.690414 13.02720756 -2.753804591)
(1953.610633 3.876807292 -12.35851423)
(1944.668403 -6.0385123 -17.35876223)
(1956.426579 -16.57064607 -9.696097363)
(1971.242743 -8.114489148 -1.317898416)
(1982.826597 -9.920185922 -14.07524163)
(1966.805847 6.771806884 -11.39079519)
(1970.913563 -8.443092536 -5.152584908)
(1958.657215 -8.555557969 -26.4848837)
(1950.198121 7.512352194 -16.71862999)
(1951.82002 21.00804181 -29.13043725)
(1948.731301 11.19009217 -16.73615754)
(1949.801704 1.692135118 -12.60574298)
(1948.956556 -3.995255002 -20.42316686)
(1944.391055 -0.7654748568 -8.735699249)
(1942.521156 2.997678881 -12.51166047)
(1943.170432 11.34945662 -8.02831457)
(1931.192027 -1.616238319 8.835760647)
(1928.692064 18.4884126 18.05842444)
(1933.282008 6.126534482 19.05003311)
(1942.682414 -4.077115461 14.65559383)
(1954.382786 6.949116032 4.799648961)
(1962.245708 11.70943953 2.557044221)
(1941.491602 0.9316569888 5.863021878)
(1929.93763 -9.655809827 7.894712701)
(1934.802173 -9.236096896 23.72376589)
(1942.634031 2.321987725 7.957615566)
(1953.44669 6.930883164 -6.162707977)
(1942.931645 5.23922713 -5.195527034)
(1948.100555 0.6165115445 -7.595783027)
(1947.162146 3.281174984 -18.35864222)
(1942.521844 1.305273383 -23.3712459)
(1942.08957 1.049696028 -8.477285861)
(1938.871374 -5.179765736 -9.434726112)
(1942.298912 -7.014384594 -18.57176965)
(1947.345507 -16.17112831 -12.801574)
(1938.272689 -10.04656443 -4.644425539)
(1925.360094 -9.018753387 -4.484288322)
(1917.744571 -3.940731935 -9.524422341)
(1923.689958 6.943686502 -15.1788807)
(1925.506541 13.94248643 -15.87886594)
(1934.705584 10.64869506 -9.623881489)
(1924.794127 1.525166945 -13.89189272)
(1945.552982 -4.087699661 -18.39013089)
(1955.777134 11.99928001 -27.3219115)
(1957.786837 9.622523165 -29.54183738)
(1958.66144 21.84679779 -16.33638563)
(1947.308667 10.85322527 -22.11084261)
(1945.57287 -2.644167805 -25.66618624)
(1947.683016 0.4171215563 -8.784283751)
(1950.277329 -32.95320414 3.043984694)
(1960.952234 -25.82753051 4.223080986)
(1974.387861 -14.27412841 -0.8549296388)
(1969.711942 2.972570399 9.840865005)
(1946.254728 5.456047719 5.12520207)
(1934.406479 -9.865566573 -3.145507599)
(1934.904314 -11.48742285 -11.36474052)
(1957.381027 9.017197751 25.51618267)
(1951.797941 7.692326895 28.04744777)
(1950.757831 -4.296894158 26.26190128)
(1952.840708 9.656383898 18.22589443)
(1952.900577 11.5754166 11.80187396)
(1966.891996 13.70304715 3.82335617)
(1971.231033 1.62021788 9.902395341)
(1983.583303 -7.903233382 4.415599736)
(1980.973451 0.5474060748 -3.895838483)
(1970.055886 -6.22606954 -11.13082401)
(1952.80964 -0.3419601715 -4.766103701)
(1958.35096 -13.94539603 24.36724903)
(1966.160464 -18.06841877 24.97928632)
(1973.98393 0.2807170089 19.19398539)
(1968.977068 6.741261868 20.04317431)
(1960.505702 9.212856785 24.20670245)
(1951.212812 -11.60693177 30.78429151)
(1951.469325 2.735705222 23.39600783)
(1962.92261 12.69768615 7.57863846)
(1960.433266 15.77750109 6.382228852)
(1939.862455 -0.3474757518 24.20248719)
(1934.180414 3.908579935 3.326578224)
(1944.651026 2.686547962 1.502424764)
(1956.745395 1.50490061 -8.882748173)
(1954.59153 10.62383451 -7.69523944)
(1966.471276 13.9124648 5.379709314)
(1957.56116 -0.1998809325 -2.882928513)
(1960.561275 -27.08725407 0.8917891963)
(1954.82582 -18.11265126 -10.70179294)
(1951.626141 -19.78210574 -1.154538482)
(1960.954922 -6.752619408 6.300639867)
(1955.435676 -9.144203117 0.1824208715)
(1943.544265 11.47756291 22.5763924)
(1949.767768 9.891182423 16.43863892)
(1950.199274 32.05836834 3.376082185)
(1954.163512 21.03653728 -1.125827562)
(1943.4937 17.70976515 -6.138906335)
(1949.381096 5.437259205 18.36022809)
(1943.697356 -4.54239017 16.09907872)
(1946.48045 -9.381626373 9.840203017)
(1939.973264 -4.197832592 7.954337228)
(1946.994793 -1.222352697 2.639900971)
(1913.996724 4.066723859 -3.02580431)
(1902.501703 -4.103058602 4.872897543)
(1904.625389 -4.204492821 9.399611163)
(1899.667635 -21.31040068 -3.516229649)
(1907.792769 -1.095351702 -4.502552209)
(1917.406131 -0.5270316797 11.5677622)
(1927.343838 7.251789556 2.15544151)
(1917.614597 15.86199212 15.40774616)
(1932.935427 1.086533873 -1.773501581)
(1942.026623 3.619615993 -1.115677031)
(1945.517409 -0.1077446647 7.714394376)
(1932.675598 0.6918564433 -1.337949362)
(1953.40269 3.361680992 6.21923892)
(1952.862749 19.24173932 2.96392671)
(1938.776391 15.32336808 7.855678869)
(1930.47734 -13.63039068 12.00155004)
(1923.096849 -10.8567018 5.47080371)
(1931.932718 -13.38829184 -1.192623194)
(1954.131976 -8.38880738 -6.022964125)
(1947.692038 -11.9892549 -1.706267562)
(1960.575604 -7.617777213 -4.288269951)
(1941.961728 -10.23376691 -1.661488842)
(1941.228668 -8.182900242 2.133491362)
(1947.741262 -1.720250991 -7.766881853)
(1956.444865 0.2782112748 -4.748941889)
(1952.058781 -7.128004048 -10.53789938)
(1936.822573 5.437331032 -10.60792177)
(1942.27325 14.67389527 2.191910706)
(1937.888699 40.03029979 -3.280620204)
(1935.646248 34.9312088 5.667391287)
(1932.117284 30.21613541 6.6367423)
(1936.083389 10.11674646 6.405217506)
(1934.247619 0.008760078286 -1.535618342)
(1936.975974 -11.89424049 11.20890474)
(1962.645637 7.420323411 -3.017233338)
(1952.411196 16.40174489 4.348588459)
(1954.556435 3.439918843 -10.07021969)
(1960.48356 6.85203573 -1.807237367)
(1943.814031 16.86637264 -19.13611293)
(1946.788397 8.326605603 -26.6587737)
(1938.673395 0.1727854491 -32.11456349)
(1929.149628 -8.217718922 -20.64221744)
(1938.356303 -14.16105099 -6.440678936)
(1943.830559 -9.04014441 -1.377886389)
(1952.958103 15.53423794 8.743620607)
(1949.53134 17.49888193 5.597271339)
(1949.774934 11.39778187 2.333015857)
(1948.494365 8.824639597 -2.572351674)
(1944.558105 10.12246767 0.3959127533)
(1936.303932 -7.309356839 8.743891561)
(1934.907724 -19.35965009 18.98907204)
(1936.747728 -5.6173403 29.47622628)
(1947.662395 9.938473163 23.3689373)
(1941.69117 5.204874028 13.88104341)
(1922.976425 -8.332872722 7.528991754)
(1932.670505 -4.319361125 0.5970290156)
(1949.488174 20.66916677 -1.569746575)
(1945.692636 7.00301805 -17.27281513)
(1927.584986 -5.17856367 2.221030315)
(1931.747819 -6.680593512 13.68004441)
(1925.152272 -14.50130072 7.636448732)
(1934.132608 -4.886238676 8.184797635)
(1944.565605 9.234315789 16.0520579)
(1940.527305 1.068022012 17.13321094)
(1933.587732 -5.928154073 19.74390116)
(1931.111587 -11.0115288 13.21019078)
(1944.963906 -2.781252429 9.595066824)
(1944.148943 1.843164549 -0.5400660633)
(1944.001853 -2.610735291 -9.671172944)
(1950.159503 2.860836925 -16.60338209)
(1945.901439 -7.146681074 -10.753992)
(1925.414618 -5.41672168 -15.6279232)
(1943.286352 -8.940388673 -14.34766757)
(1940.686307 -3.587936456 0.05914829327)
(1940.055605 1.570750016 -9.602931954)
(1928.644839 4.775907968 -18.67710116)
(1936.39832 -0.2625601437 -27.43476254)
(1927.737267 3.949736128 -21.80646698)
(1952.11351 -10.90051362 -1.533148647)
(1950.114358 -8.45508118 -10.82999384)
(1952.558307 -1.860963053 -7.500250135)
(1947.233394 -5.523497106 4.792705808)
(1942.09073 -17.84316605 14.29230028)
(1952.101342 -21.8388398 25.63123709)
(1957.776222 -19.81835973 24.43898397)
(1950.707156 -5.407717884 9.641578667)
(1951.935781 -2.860546854 13.81328429)
(1960.781209 13.60735464 -1.251139771)
(1960.946382 15.42778988 -15.36087341)
(1942.635249 -4.409388156 -15.76011547)
(1944.105877 -8.741742043 -19.71139371)
(1944.189393 0.8363723541 -5.794990483)
(1948.36488 -0.6310147463 -2.29416464)
(1938.250168 -12.67216802 14.8070124)
(1940.903484 -7.303559995 16.90180358)
(1951.411838 -5.541286114 17.57287299)
(1941.186642 -7.071347785 6.563717908)
(1961.979235 -3.497373951 5.797557426)
(1954.646859 18.48116988 20.61620747)
(1953.891968 5.852450511 17.6976133)
(1973.909353 -7.768814363 20.4813886)
(1972.225847 -5.621046693 18.75738771)
(1975.711695 -9.670015785 3.911247132)
(1963.616461 -11.35722874 9.340879335)
(1947.578957 -3.081865738 3.948200738)
(1940.452743 -2.353542106 2.69574288)
(1944.000833 -4.200267854 -9.436985823)
(1946.94172 -1.969574509 -6.679693313)
(1950.923996 7.587466718 -11.37382593)
(1954.704711 11.27489228 1.874739151)
(1939.697919 14.54875249 13.40037104)
(1944.671544 5.79020749 6.474666959)
(1944.016115 3.144041839 -0.8171849587)
(1956.656907 -2.148057542 -2.427052156)
(1957.760982 -8.574323889 4.31362816)
(1960.533041 -2.226604426 13.70060443)
(1957.243628 27.6906828 1.652908319)
(1964.526885 22.3365572 21.75755062)
(1966.610669 6.435048829 35.85190207)
(1956.740966 16.575412 31.87466477)
(1958.451487 9.142527575 19.05061517)
(1957.840405 8.380731185 15.12173486)
(1944.357074 -0.4663981413 -0.2467000801)
(1936.457747 -12.08715971 -25.59930513)
(1940.204017 -19.57792504 -15.1230854)
(1954.057699 -17.31516856 -8.435507822)
(1966.660532 -18.066422 -4.78863574)
(1966.963886 -11.92947949 1.950947791)
(1950.790463 -19.39783891 -5.851286408)
(1938.644641 -10.35025074 -5.909779113)
(1940.885941 -8.687799166 -4.254407098)
(1939.28616 0.7835218792 -8.799090828)
(1944.944806 2.037533671 -2.465482513)
(1953.155605 4.471882395 6.576864623)
(1958.110334 -1.943196278 -2.081461591)
(1952.931373 -10.72723004 10.61380691)
(1949.764719 -14.89133132 19.82161474)
(1960.182153 2.465625782 30.36894586)
(1955.393295 -16.02675937 10.28137072)
(1951.297436 -19.80089576 6.912877796)
(1954.210592 -6.18541334 0.9663218965)
(1960.668499 3.204592882 7.823332364)
(1959.992674 3.011970447 10.70507751)
(1956.758305 6.593749736 0.2713991816)
(1965.523023 11.05222064 5.618400315)
(1953.064746 -10.47312027 9.100802287)
(1950.259365 -15.03508258 12.01667392)
(1944.321227 -23.73834978 2.630427196)
(1944.752181 -9.152684966 -1.610592999)
(1949.314644 -8.972141585 -6.584110318)
(1950.562392 -17.89559722 -2.707414878)
(1942.237502 -14.90254562 16.86828795)
(1942.546176 -18.50770565 8.085704207)
(1937.598232 -15.61153768 7.984541043)
(1944.295966 4.429491274 -0.1190677733)
(1954.519677 16.24397353 -2.2692602)
(1956.151276 16.82845317 -9.454759578)
(1949.325735 4.952945548 -0.8155645624)
(1943.033315 10.90953528 -6.240821596)
(1932.854143 10.57974015 -5.257096806)
(1944.422991 12.97640062 2.715197392)
(1944.487499 15.18046721 3.41846347)
(1941.613576 6.733927784 0.4497728511)
(1950.786492 -2.820212656 4.129876837)
(1934.4665 -1.23038376 -5.952167554)
(1934.287611 19.51967557 -0.8615782799)
(1939.652648 22.37510913 9.764250546)
(1940.113584 15.30875292 -12.17528318)
(1956.894226 -3.932333376 -32.0906043)
(1960.302267 2.856206967 -29.75824516)
(1958.349908 10.55733258 -31.52159467)
(1979.973169 1.410760815 -26.72916289)
(1970.820245 22.43611439 -14.74168469)
(1968.363321 8.827267511 -17.57543462)
(1976.129519 9.7693017 -10.76595519)
(1950.251545 -4.130291939 -6.809027731)
(1927.002556 1.744010984 -0.8457943716)
(1939.486558 1.84816974 -4.951849374)
(1938.046003 18.20832993 -5.906201041)
(1938.850331 11.89066445 3.922833598)
(1931.035918 -16.348928 -7.233743857)
(1940.083351 -17.15257107 -9.909104175)
(1933.761932 4.566416977 -19.7844213)
(1940.471923 -4.722283047 -19.09498707)
(1934.612632 5.939418308 -20.56581191)
(1941.791738 4.175245149 -21.15891962)
(1941.876937 -4.118997435 -10.49227029)
(1938.805204 0.2635547489 18.8717883)
(1937.116878 10.30888738 5.876029772)
(1939.861119 32.60851378 -9.837027181)
(1935.171904 27.3903972 2.831222444)
(1934.131648 18.01584535 0.4787954305)
(1920.702519 12.01615263 -5.867507059)
(1922.508738 -4.248711648 -12.91230692)
(1916.46844 11.1782397 -10.01911937)
(1922.870588 30.33581914 2.868207784)
(1929.762309 31.72662785 9.75780591)
(1919.891705 25.38116999 -5.340741869)
(1921.908952 -8.543589798 19.40720914)
(1933.313757 -18.22034694 5.942036009)
(1938.957587 0.5707555153 -15.42552512)
(1937.831131 11.16467275 -13.09206458)
(1944.477594 11.06876301 -10.32847502)
(1925.256294 7.630772858 -12.05987009)
(1916.888014 16.55355906 -11.84059572)
(1927.39935 6.796003775 1.216864347)
(1935.450977 26.17388618 -6.143671071)
(1952.111738 37.85480711 2.240098674)
(1951.315925 34.54414763 10.59292986)
(1952.5615 16.60520213 -3.621988528)
(1948.698456 -7.724917448 1.170964825)
(1931.61805 7.563463005 3.013402472)
(1944.499157 5.502432086 16.7926803)
(1935.893987 26.44660841 15.37192046)
(1931.971991 15.023668 -12.56387477)
(1930.929638 4.230453632 -14.60160997)
(1928.496839 0.9890488424 -0.7120061358)
(1928.897503 -6.94915918 19.1932431)
(1931.47704 0.5299307101 1.036370808)
(1936.183977 4.347006432 -3.99644983)
(1935.854553 -12.96612295 -8.912966791)
(1917.087813 -6.734846799 2.635460665)
(1919.732363 1.742060922 0.7963176524)
(1936.660773 7.102715232 2.711031712)
(1945.037358 11.13125699 -5.206571766)
(1939.5287 5.461208782 -5.951132089)
(1928.332462 7.64680017 -1.611904268)
(1923.704823 -15.09676122 -10.02963217)
(1926.778011 -4.923955514 -12.55848849)
(1928.617275 9.979820534 1.478040217)
(1930.232464 18.49361708 -2.034541619)
(1937.011667 -2.144072224 -12.11813001)
(1922.596534 8.063645518 -15.50352673)
(1920.861429 13.22736315 -10.65652708)
(1922.186253 16.34283903 -6.052756663)
(1937.774806 7.259964225 -12.62804636)
(1932.18118 0.7647206299 -10.34337129)
(1913.778302 -4.932832301 -10.78589898)
(1966.382156 20.42520338 -4.617937541)
(1957.924286 11.05709096 -14.858108)
(1950.357213 -6.164897972 -3.329666108)
(1965.508922 -10.21321017 -15.42568533)
(1969.341809 -26.00757639 -18.56571466)
(1957.109054 -14.15396386 -14.49772818)
(1950.838336 -0.5639892524 14.42039105)
(1944.190197 -8.527227742 5.968288695)
(1935.372975 -21.1128106 6.78802194)
(1927.097042 -9.296278645 5.759222356)
(1939.261333 -13.7520637 4.882954542)
(1934.895589 -0.7545195636 -3.887545013)
(1931.28104 3.246359202 -14.29070141)
(1925.500192 0.335593736 -16.80730501)
(1929.66368 16.22212489 -4.087558312)
(1936.874665 23.35039112 -22.34098585)
(1934.352792 20.10351909 -9.15053728)
(1943.50259 24.48750313 7.682792225)
(1946.163376 31.30792752 -2.100912467)
(1951.776818 49.39781362 5.004652674)
(1943.926675 16.2003011 -6.582645549)
(1954.872514 13.64992883 -7.169537188)
(1946.293243 24.05844959 -12.5546231)
(1922.002852 5.010158012 -1.013138408)
(1917.002136 3.790655122 -1.18533488)
(1909.289562 -1.080214116 11.63813603)
(1927.969964 -12.09847306 -5.880413185)
(1941.645865 -11.4879171 5.614149102)
(1938.111362 -9.491511315 -2.26879532)
(1938.353956 -14.27602046 4.123357854)
(1933.887699 2.617196819 12.20756238)
(1919.275734 -12.37293344 2.073280548)
(1927.38358 0.7862869655 7.125763395)
(1943.285225 7.302555554 9.768952419)
(1919.510543 2.377918654 6.690243534)
(1930.48624 -7.092289511 22.87260543)
(1951.697637 -10.84397286 26.25562256)
(1941.589888 -15.52007179 12.86078526)
(1952.125674 9.075536659 4.734592807)
(1946.44968 12.132198 -4.571719322)
(1955.199176 9.570742175 -8.107135123)
(1948.168937 6.332346224 -12.47183999)
(1945.754473 -3.045273006 -11.56122532)
(1935.095547 4.290638432 -0.2436992886)
(1922.942741 1.932297026 -11.12260511)
(1910.545505 7.741364447 -9.478949771)
(1922.975215 11.89995097 -4.026375703)
(1932.021155 8.486293591 3.697505902)
(1964.083521 -1.917542944 8.661271439)
(1968.879729 -8.253681271 2.702613664)
(1978.650958 -12.88932864 -5.051123618)
(1972.401949 -7.748657345 -3.823410288)
(1970.900145 -15.55841917 9.199329002)
(1954.020799 -13.46005483 5.163421667)
(1954.87948 -23.96445424 -4.366701972)
(1949.866576 -7.214322531 4.077890812)
(1959.445165 1.953406842 -0.9927656201)
(1960.932272 8.525751838 -6.542777996)
(1963.842444 9.265260761 5.465564975)
(1952.132928 17.94257231 24.89692501)
(1950.129606 -27.50666523 -0.6182670622)
(1933.967455 -24.82537962 9.987564973)
(1934.019571 -13.12425271 14.37164324)
(1933.428375 -13.10980758 9.082372599)
(1941.634196 5.905849719 0.7444597199)
(1939.259809 0.1778939391 4.009481731)
(1940.548162 5.388301319 2.803927154)
(1957.475862 10.2832623 4.475320473)
(1958.163923 1.972341262 15.53800759)
(1957.153428 12.94635052 9.816368476)
(1963.216292 -0.5144914761 -6.022137111)
(1965.859234 -5.721494637 1.570013327)
(1953.367264 -9.797907994 -12.55486536)
(1946.782152 -6.236253245 -20.89706405)
(1944.856822 -0.9231091254 -9.485410587)
(1944.282699 3.726659828 -15.96803987)
(1951.200686 -5.900055922 -1.993548156)
(1962.193727 -16.85614915 -18.78476971)
(1949.906299 -15.55370724 -16.32163666)
(1941.921217 -25.12848435 -9.047011535)
(1931.034463 14.15775582 -4.178806029)
(1929.451536 6.471616049 -7.843125259)
(1925.964408 14.44743888 8.162943073)
(1934.138424 10.30333546 -3.371157546)
(1937.627922 -10.38835163 -3.261197557)
(1928.594786 -2.468131647 -9.536267955)
(1932.663209 -7.697660057 4.714561621)
(1936.42637 -0.004111182689 -3.330422383)
(1927.975667 10.48574012 -13.96855306)
(1926.709567 11.36424305 -10.7627514)
(1926.659132 20.13235056 3.38128745)
(1927.046139 25.0749739 -3.937664235)
(1933.973533 19.04481777 -24.70320091)
(1938.047244 6.556382023 -8.902778788)
(1926.68354 11.78375088 -12.19896617)
(1937.256456 10.87481787 -9.437141371)
(1945.927007 15.4303693 -19.18586338)
(1942.191684 15.9528107 -21.32439477)
(1940.112115 12.36354497 -9.516713374)
(1940.182586 10.94148645 6.062849096)
(1927.286745 26.58521426 7.97514575)
(1931.657662 9.559302631 1.574325013)
(1941.14834 17.76126068 5.111883237)
(1933.441154 13.00949975 3.552094696)
(1932.771448 12.88244532 -4.478061439)
(1929.74162 21.93408843 -6.64)
(1925.563929 16.64366534 -7.682885466)
(1932.695781 11.76199654 -19.30372387)
(1937.978398 11.40980995 -9.205024035)
(1947.899264 17.95047449 -8.592526087)
(1949.974174 13.23441401 -19.91364408)
(1938.306153 4.641244182 -18.1786825)
(1928.94935 8.366816509 1.636919773)
(1928.616734 9.100432572 -12.88261451)
(1937.340527 13.52330609 12.8131426)
(1936.747601 13.09259573 10.81244146)
(1931.443639 4.355644816 14.3060224)
(1933.157178 -4.923401808 10.58055769)
(1938.544445 8.369614443 8.475566872)
(1926.504427 20.4601627 2.624669891)
(1933.102858 2.997187738 -6.139285493)
(1948.547907 11.18353537 -7.56539356)
(1945.407225 9.811303743 -6.186820915)
(1948.604489 30.53014214 -6.961183952)
(1934.269466 18.56677624 12.77239059)
(1927.942237 30.01122203 15.47573188)
(1948.657538 16.08315856 -10.40816585)
(1948.351135 6.375113658 -6.637455713)
(1948.083973 5.383783076 11.48726033)
(1936.584265 -5.207476594 11.70005074)
(1946.43038 -12.23098765 24.17541531)
(1953.508155 -5.28482277 1.786234605)
(1946.468404 15.20312886 -7.379700049)
(1951.784483 18.78009599 -1.725548509)
(1941.544016 11.12884668 8.625116072)
(1947.687027 21.00925375 8.788334462)
(1939.51709 18.06853268 15.5615822)
(1945.050245 38.31742323 6.178560162)
(1929.933381 14.27753558 -7.871507543)
(1933.309662 -1.120875747 4.58570494)
(1940.325806 27.1388863 7.070616451)
(1934.736288 23.62052846 6.937159165)
(1948.276756 10.37143687 19.81549642)
(1948.154616 5.616760411 22.09762877)
(1961.077307 8.361291092 12.90360236)
(1947.25851 15.5386739 2.921174031)
(1938.563477 8.066018155 5.221466859)
(1955.444065 10.57778751 3.650791471)
(1944.12056 -0.545001719 0.4365252376)
(1947.956307 3.09368272 0.3044195312)
(1938.917539 13.85181376 -5.708120947)
(1949.231621 -2.571405759 5.713656542)
(1949.862732 3.842974135 -6.251899166)
(1954.361615 -15.35597125 -0.5394064513)
(1941.498449 -17.3083408 4.727314073)
(1945.737332 -10.30675735 15.43003332)
(1930.247923 -3.586884494 16.37277507)
(1929.183124 -17.11661743 10.7916819)
(1931.542527 6.001108556 16.52807398)
(1931.320911 19.80818921 23.43670727)
(1939.842453 4.53684063 5.048006319)
(1940.63428 2.209627245 11.51743095)
(1939.186507 5.474182979 16.19076753)
(1935.28747 5.417833685 22.82155975)
(1941.462254 8.521452067 13.06347262)
(1956.930441 7.462569503 0.7181613111)
(1950.288318 17.39666261 14.22695414)
(1953.861562 23.18908544 3.5296992)
(1955.134079 11.46484203 -4.48518977)
(1945.445737 0.8342491173 6.753363911)
(1960.314666 4.849579073 -8.304374749)
(1963.66065 5.866360696 -0.8869701359)
(1975.452845 -11.43024131 8.472446577)
(1977.023806 6.21631367 7.769144279)