/*--------------------------------*- C++ -*----------------------------------*\
| =========                 |                                                 |
| \\      /  F ield         | OpenFOAM: The Open Source CFD Toolbox           |
|  \\    /   O peration     | Version:  2.4.0-MNF                             |
|   \\  /    A nd           | Web:      www.OpenFOAM.org                      |
|    \\/     M anipulation  |                                                 |
\*---------------------------------------------------------------------------*/
FoamFile
{
    version     2.0;
    format      ascii;
    class       volVectorField;
    location    "0.0006";
    object      UMean_O2;
}
// * * * * * * * * * * * * * * * * * * * * * * * * * * * * * * * * * * * * * //

dimensions      [0 1 -1 0 0 0 0];

internalField   nonuniform List<vector> 
5120
(
(1918.525197 9.384210433 -11.05955624)
(1928.410087 18.51118794 -24.27763835)
(1963.952161 27.72669565 -20.80097706)
(2002.009508 52.39956987 20.07281786)
(1982.858745 19.58850521 19.42027839)
(1947.103712 7.716909296 -5.11615403)
(1939.294392 14.72987063 -17.71704379)
(1974.998636 6.95734994 -17.09407447)
(1975.503469 -7.405551866 -17.32205038)
(1955.070501 -6.921281289 -14.57943928)
(1949.044987 -7.477372569 -39.72458359)
(1961.778732 23.13063211 -19.24509592)
(1925.98058 8.43871171 23.9136149)
(1902.146536 25.65551602 17.00458702)
(1911.291592 22.27769838 8.376478973)
(1894.464075 15.38532253 24.28042977)
(1896.269907 5.682424421 -15.95666948)
(1924.975903 -9.568950874 -13.59932903)
(1918.492966 -14.20892031 -31.05328474)
(1908.646036 -16.79916884 -31.74791173)
(1931.308731 -21.2601088 26.79343146)
(1916.776109 -2.876885182 31.25826828)
(1944.789638 -8.137712602 7.05529777)
(1957.184503 -13.80445214 16.60993308)
(1953.756246 -1.584856518 24.04202123)
(1941.248824 32.5612525 35.65692607)
(1933.210718 7.798394443 18.83836754)
(1899.424846 33.6444807 -30.03806758)
(1916.764524 19.76571011 -6.350370179)
(1930.526162 9.21839258 9.343397423)
(1929.108021 4.224357846 20.05744776)
(1929.404988 -16.54025351 -9.853617909)
(1902.536212 -25.16073535 -22.60462698)
(1915.498932 -30.5154353 0.3019223886)
(1914.988179 -29.47219588 -23.43670641)
(1943.504211 -39.06359752 -26.02131592)
(1952.054778 -34.94915579 -29.00326913)
(1925.309214 -44.48985837 0.2924521267)
(1923.73674 -33.91029113 11.6662282)
(1916.382432 -30.25866018 12.2663368)
(1945.407639 24.7689074 18.91123996)
(1958.805848 -5.076384707 -11.79980897)
(1978.594256 -29.51491258 -27.00728878)
(1988.172312 -43.08953446 3.934995811)
(1997.601739 -34.19694243 30.54045286)
(1982.133348 -12.57759837 25.08187244)
(1971.968757 24.86484181 42.49117769)
(1946.860711 28.2803812 28.74055315)
(1914.166021 10.95822498 17.38698904)
(1902.80115 -5.744698873 30.56714649)
(1920.708013 -23.11323389 1.597734295)
(1920.716496 -3.619617425 13.50360961)
(1922.906237 26.95773176 33.99273174)
(1960.6026 35.65976142 53.30843501)
(1948.080582 6.163028153 33.63625895)
(1934.861111 -49.9456636 -9.577328119)
(1956.197159 -47.23550063 -7.660992249)
(1971.622845 -51.68529012 9.658411804)
(1973.588497 -51.91270306 22.16082483)
(1979.42204 -24.95652745 20.17733116)
(1953.265623 -32.26875752 34.8989459)
(1940.244006 1.806210902 42.35009539)
(1907.209025 30.83822432 29.11090537)
(1908.305651 44.41493623 10.53585774)
(1922.636817 12.00978358 0.8521140083)
(1910.934383 -7.565741247 -35.02299756)
(1941.45086 -15.8430254 -17.26835976)
(1968.734712 -6.484091945 2.884061554)
(1948.511374 23.90929432 -15.51976977)
(1954.748085 24.04727862 -10.84556347)
(1999.873809 10.74198118 -14.20196168)
(2016.164254 -6.382294264 -32.42609861)
(1997.197542 -6.226436894 -11.1775822)
(1983.565162 -31.21147395 12.09057794)
(1944.97453 -52.85027319 -6.757416362)
(1979.653665 -18.74458901 13.22434609)
(1996.605667 10.49820898 -11.85092013)
(2019.076886 10.76867722 4.598591655)
(2013.894834 -10.32178316 -4.920371984)
(2003.069929 -18.58832471 7.966618524)
(1914.40629 22.31203769 -11.75706012)
(1905.227861 36.23018498 -37.61514042)
(1922.527298 37.35364181 -4.736443348)
(1933.183552 12.35937377 29.93526456)
(1962.658458 2.010730715 40.48816557)
(1968.437745 43.27555933 39.20090812)
(1968.963197 53.30317164 13.43008664)
(1926.963055 38.96501886 -3.463077941)
(1924.228469 13.21299201 -22.78144556)
(1956.515384 -0.1734345983 -29.49177409)
(1950.645447 19.6188526 -0.1589916536)
(1921.73987 37.65453951 12.07934088)
(1933.935913 30.38466777 14.92620505)
(1943.174294 14.75740107 3.857543904)
(1944.41781 20.94017228 -10.80851424)
(1957.328144 5.959700015 -30.4179001)
(1945.348727 -0.2223618856 -11.22578329)
(1943.794677 -39.44199559 1.397403895)
(1895.996398 -33.09388507 -10.19157435)
(1902.556735 -4.506784054 -24.09429498)
(1908.788505 29.65191319 42.74831568)
(1930.69494 1.906567079 68.09589371)
(1928.003816 51.01257239 54.34776584)
(1957.662266 46.27950112 -0.08747629373)
(1958.50152 50.07695505 26.31350342)
(1928.518014 63.02096407 6.896392226)
(1934.602355 74.07129259 4.129517583)
(1977.976765 45.67729274 12.04813105)
(2000.928148 57.89736917 -8.412650334)
(1988.563575 28.80468959 -8.692524501)
(1999.483226 16.42418568 20.03637377)
(1991.432234 -14.47839498 16.05649044)
(1986.177509 1.047118023 44.47685465)
(1958.75592 -11.27762104 68.91355476)
(1932.881882 10.715511 92.12705647)
(1921.200682 18.64592805 73.1578017)
(1934.308374 -5.562760482 66.46853223)
(1921.118093 -7.533552044 29.811063)
(1952.450876 24.2913847 41.03947465)
(1948.377117 34.52554595 53.58382485)
(1935.740328 -19.86801291 -22.02054043)
(1935.919898 -16.52269674 -11.69288476)
(1968.400425 3.558782872 13.65121512)
(1970.321603 25.55027913 26.24221774)
(1973.772631 31.64856444 11.50778132)
(1971.4491 31.20190786 -7.137113314)
(1969.083907 24.81801346 1.023020517)
(1988.697093 20.88936236 3.1263594)
(1967.486876 34.22954023 14.06366492)
(1956.678143 35.38730966 43.03521147)
(1951.437242 -15.75795716 29.64773626)
(1955.054959 34.54479699 45.35686006)
(1939.680822 11.71911609 16.94761966)
(1953.134337 5.464347146 7.353947001)
(1968.819739 24.23945491 11.9440445)
(1966.308 1.125089175 -10.34538579)
(1970.840642 6.854755853 12.11881358)
(1983.040145 9.781670487 22.25523449)
(1977.194136 -4.708921182 13.27476499)
(1973.992265 -34.51761803 20.31559967)
(1928.663196 9.634513298 -3.132738685)
(1957.148364 16.561338 -6.337936125)
(1936.735117 4.856410565 -2.314956834)
(1960.575434 -26.70581996 13.13679987)
(1956.640265 -32.53331144 -7.268416233)
(1936.661385 -25.48000038 -7.332592197)
(1927.098007 -20.31186368 -4.966743405)
(1944.22851 -22.40428349 25.73287958)
(1954.228192 4.90663209 -8.238712811)
(1953.448786 19.68843829 -30.63032243)
(1951.293503 60.09339158 -25.1991152)
(1973.686839 51.64941632 -46.19513416)
(1982.822982 52.12016296 -40.29019196)
(1969.480937 33.57683519 19.81520364)
(1976.85427 13.53654534 20.23752082)
(1934.686448 1.704723217 22.81770186)
(1918.738559 -8.732552872 45.19430436)
(1932.716992 -22.50267941 2.138101261)
(1928.691367 -5.442375584 27.68105241)
(1919.745496 -7.724248934 15.68457951)
(2003.031441 -20.15222444 -69.12414788)
(1956.805235 -18.45367928 -35.00844907)
(1930.325487 -6.576069072 3.704884072)
(1915.001161 -12.24417072 1.632036189)
(1928.607982 9.525443795 5.950083025)
(1976.494919 42.35450059 19.05874557)
(1983.931404 24.35509967 -25.79578798)
(1953.032042 -3.705414694 -14.390735)
(1961.445814 -14.9735433 -1.63797368)
(1981.561968 -6.750122213 8.181142592)
(1954.736274 -14.57631835 25.62381936)
(1967.353111 -20.46126462 22.74943835)
(1937.609096 -1.845429564 16.72264745)
(1924.497485 30.81039609 -38.82516335)
(1926.641117 12.81208962 -9.666785237)
(1940.507898 5.218287298 35.74629581)
(1963.930216 -9.999409326 39.21347135)
(1972.608246 -30.27285019 10.55360243)
(1990.313928 -44.52764415 -21.32491829)
(1993.547655 -23.29037077 -26.0987015)
(1890.676027 -6.71053436 -47.60816781)
(1904.43236 34.51482619 -41.60256095)
(1937.610073 32.90108046 -22.15788985)
(1967.944313 40.74086568 -33.94623892)
(1965.660511 27.57211779 -48.10607394)
(1960.602095 11.42849589 -50.09947904)
(1976.487649 -14.30524401 -28.12263981)
(1970.838563 -42.48365817 -34.17237031)
(1965.131806 -23.43935679 -45.52258257)
(1962.245288 -27.7618057 -46.84820104)
(1949.083577 9.69768034 -52.25193651)
(1948.644978 -5.031803143 -26.94257357)
(1945.760668 24.29071135 -34.91060121)
(1956.012306 -1.490187385 -50.33149607)
(1935.152797 -14.7096662 -67.87311236)
(1927.867562 -22.74710014 -55.03479508)
(1956.149231 -45.55507136 1.175611254)
(1927.000143 -46.37132992 8.485675882)
(1897.610652 -30.745041 9.532369705)
(1891.647127 -17.67491059 -16.28787671)
(1956.538052 -9.567681905 37.78574534)
(1957.519739 -19.15551276 -5.812296517)
(1968.019545 -45.77256735 -3.472649956)
(1953.072016 -13.86348618 9.00086912)
(1932.015832 -24.56698588 -31.52663566)
(1935.187473 32.73322861 -7.453881533)
(1925.887191 37.53402205 7.415509143)
(1924.410681 37.85571822 -51.17286296)
(1934.957246 34.83227889 -51.11692434)
(1934.250472 -0.8461505895 -19.22284067)
(1906.423491 -24.33218658 39.56107014)
(1901.028759 -29.82204093 31.43918571)
(1926.964645 -26.45967948 53.80610327)
(1954.794856 5.04435665 44.32396913)
(1941.027519 39.82395705 -7.064522968)
(1949.742231 36.19078838 -40.19016031)
(1930.051474 -5.583723021 -39.8188114)
(1936.735912 -18.76919831 -21.13008993)
(1973.563113 -17.88778324 10.61619209)
(1981.142747 -31.85298981 30.99855769)
(1957.891956 34.89792632 -9.147655838)
(1918.762836 8.33554702 19.7914939)
(1938.20876 8.625658863 34.52542064)
(1930.858051 -8.78571575 5.412049812)
(1949.222566 -38.37422957 -17.24255975)
(1954.024882 -18.4599902 -12.72326398)
(1950.818513 -11.74050163 -47.78928914)
(1946.537674 -13.39192339 -16.4302061)
(1948.719173 -19.28139903 -13.16647703)
(1949.024974 4.945239022 -36.81075217)
(1942.129842 7.875244614 -40.20233033)
(1938.88238 19.74611966 -3.079225797)
(1922.463688 -8.152166905 -38.96774419)
(1902.425366 2.884299293 22.43760473)
(1924.956591 16.55718656 17.94793465)
(1922.519621 37.2626152 19.37112153)
(1968.89589 45.34594043 29.70510929)
(1968.52318 53.24109538 2.721289395)
(1954.849106 57.77742819 -2.864972473)
(1964.213442 40.69296158 2.26735388)
(1936.773386 28.47904442 5.398434442)
(1914.814121 4.988498053 11.36648926)
(1925.649812 -5.59931648 29.05000255)
(1961.021422 -0.454542468 7.783849162)
(1968.347607 -31.8009835 -14.29747474)
(1960.35926 -37.07061413 -4.85587786)
(1970.964217 -50.43595382 -15.76458133)
(2013.74023 0.9333098808 -15.200604)
(2003.073485 -35.83440325 -19.5206889)
(1984.867354 -13.76892556 6.432247817)
(2009.648975 0.3925338899 -42.13729829)
(1990.196904 -7.760497374 -71.46995697)
(1990.768433 3.671406479 -55.19788124)
(1978.379698 25.32827975 -81.19531774)
(1937.350654 42.76232287 -48.81333636)
(1937.283989 18.07679597 -26.25474745)
(1913.735279 43.44383654 -26.1272336)
(1911.53484 28.82753972 9.70579268)
(1928.874714 20.54193532 -3.542660159)
(1941.171949 29.09282411 13.82241963)
(1915.325408 -34.98865422 -16.56819416)
(1911.532642 20.1643162 -0.3234639358)
(1945.955428 -4.02728762 7.169321714)
(1941.038854 -21.35002019 6.858358886)
(1955.608535 20.21119179 -12.77838094)
(1951.77412 30.64078371 -23.21929993)
(1934.079207 2.757875513 -5.594757358)
(1913.122489 0.517318548 11.58406203)
(1920.089677 16.27902955 -0.7626497276)
(1952.17277 43.61723701 -14.00499257)
(1962.785101 38.95307844 -48.80496515)
(1914.369426 17.87146704 -11.62871693)
(1905.771749 -0.5795810009 -17.76833743)
(1913.224588 14.72898569 -4.713622006)
(1925.693726 9.001842371 -4.187419233)
(1921.021736 0.4634900345 11.57026325)
(1922.635888 -8.466827159 19.93364853)
(1926.130837 -25.13143606 -19.7179496)
(1894.623642 -32.12984899 -9.381247708)
(1916.93291 -31.11295133 -18.32944158)
(1914.496947 -16.76207146 17.8742032)
(1895.886447 -27.59441388 29.93377448)
(1909.656994 -8.771015844 27.52606104)
(1918.112545 6.286929574 17.02939858)
(1935.44533 2.439578261 15.75390429)
(1952.21693 -31.61883065 -19.53241484)
(1965.890187 3.981660732 -35.12183476)
(1954.074395 22.60632817 -52.4561257)
(1942.152054 3.446444953 -53.37733846)
(1942.661269 6.211067792 -29.19278301)
(1924.721676 -2.901839927 11.43205905)
(1936.201346 -12.8358026 22.34008389)
(1930.419523 -23.50369618 51.82144765)
(1933.172625 -49.80998786 61.22653831)
(1973.324905 -16.80176222 40.76815832)
(2005.15088 -21.9442123 22.93507509)
(1987.675127 -39.7034943 33.36605532)
(1954.701553 -35.32039122 14.13194885)
(1940.196881 -39.73107615 3.862715196)
(1935.416995 -20.75145817 6.069449051)
(1960.572802 29.84870883 15.2105448)
(1942.370769 -10.15863586 27.02861623)
(1967.49798 -41.37931818 38.10210771)
(1959.990444 -24.45784382 49.00168352)
(1933.58722 -29.55365275 41.0424899)
(1937.616112 -9.330955968 36.45727083)
(1959.525769 -13.19803203 33.95241981)
(1971.463546 -15.272693 28.34192793)
(1942.148578 5.204200424 -7.141379949)
(1962.650259 -22.52495978 -10.60469916)
(1930.637439 -2.145223257 -27.05574979)
(1974.169794 -14.84412207 -16.51802455)
(1978.927708 -14.78234296 -29.31295716)
(1989.130513 -14.48029599 -33.80947127)
(1983.300607 -16.07108612 -39.78560489)
(1987.930379 2.109626344 -15.64151422)
(1998.003684 11.89853637 -10.38838862)
(1992.248593 20.33209062 -23.34293189)
(1980.853914 36.69826671 -6.08357858)
(1981.394165 61.95951209 16.92932682)
(1891.874042 13.86355128 -15.15979869)
(1908.619476 28.12044215 -20.26042929)
(1927.805804 14.93027461 1.790301158)
(1955.054372 7.025524667 -35.1147848)
(1963.166776 29.97851644 -38.13276844)
(1977.530915 54.765819 23.5814874)
(1971.108171 17.91527386 19.81483548)
(1964.050875 -47.6854046 3.175684189)
(1958.428163 -49.93758055 -6.550606719)
(1952.925661 -43.48986538 20.03193669)
(1952.121679 -20.69252295 2.712234647)
(1905.641069 -11.50147517 -15.93530979)
(1899.837964 -7.707455054 20.21322855)
(1913.603679 -0.6621994201 -12.35245872)
(1899.692678 56.14965533 -32.59024419)
(1916.124442 57.25554557 -28.87784843)
(1919.599658 43.38750427 -12.20135459)
(1913.407169 47.31701806 13.81457578)
(1904.996856 39.32390072 -16.09048706)
(1913.165604 9.68278165 -24.19521161)
(1944.247714 9.323117382 8.4595957)
(1942.944906 1.570176832 -13.21160633)
(1907.429545 50.51246928 -1.645315848)
(1880.970592 29.25245264 18.28269203)
(1874.367339 1.499173503 8.473585061)
(1898.294186 9.328701986 -4.311256406)
(1905.221745 8.815776689 -3.503629887)
(1911.485537 51.24095358 12.11522158)
(1922.401883 20.49549155 -11.06953943)
(1919.472765 25.27009762 10.79832898)
(1958.831162 36.68023719 1.636797322)
(1954.956433 2.4752491 1.095452119)
(1954.145295 9.193251784 19.82366559)
(1964.21904 -4.148990431 -24.38498725)
(1977.844834 -16.63758032 -7.7392313)
(1967.087811 4.006894418 12.54102374)
(1966.579974 27.83393916 61.17180128)
(1951.37204 -6.628077375 68.82074139)
(1918.057202 9.187916544 53.68158136)
(1947.408806 -10.53543395 32.51128952)
(1964.695478 7.355215289 21.48332887)
(1962.674158 1.062246275 13.69971759)
(1997.05995 -9.150763039 34.88734667)
(1985.310267 -12.12900097 4.332315501)
(2006.325247 -15.41761355 11.99553979)
(1962.4047 -32.37877341 -9.483021426)
(1979.827535 -50.88741245 3.455039834)
(1981.207811 -76.62447015 8.561545464)
(1977.249485 -20.07828824 19.37994604)
(1982.863771 5.405044554 -7.85151694)
(1968.816342 37.63180461 3.485538447)
(1970.134682 56.63842647 10.8048108)
(1965.747862 44.527621 -3.896087912)
(1962.813375 17.35547655 -4.874872744)
(1959.363304 8.438241849 -6.441102506)
(1956.016579 1.421305727 18.76558979)
(1962.115241 -4.760559954 14.60260621)
(1939.394148 28.89304 20.70423131)
(1947.952003 13.75374596 20.22373707)
(1958.425785 21.33246419 21.02924807)
(1939.953784 42.97342361 -33.63061212)
(1940.786462 8.011444331 -32.02071942)
(1930.406797 1.518561187 -30.83365167)
(1945.698532 -3.180904245 -30.30433138)
(1945.245994 -17.12776658 -23.16248389)
(1951.891966 -9.385063362 -9.191288043)
(1942.993067 23.6361782 6.538629809)
(1946.5636 37.6951396 -26.32906336)
(1995.968498 12.87858084 -15.56716868)
(1996.643431 36.12890599 8.63352937)
(1973.408275 12.77577032 21.03042542)
(1962.763716 -21.70038853 4.566466866)
(1964.659711 -7.912201649 17.24118814)
(1956.688421 -2.942673528 13.23538424)
(1961.276525 31.50177318 20.10394602)
(1949.336566 10.13162141 0.157124623)
(1943.486934 21.67221566 -0.3948298626)
(1951.497531 26.08584704 2.369643602)
(1954.413134 49.29220601 -8.972586744)
(1949.180043 18.06055381 -24.31475776)
(1933.098247 8.309142751 -0.7133069518)
(1925.914259 -12.03349983 33.00135864)
(1920.205625 -47.67780247 4.227139067)
(1934.853539 -39.16681656 1.624633023)
(1923.92344 10.88213678 -3.493092172)
(1932.058672 12.47696294 -31.35617773)
(1927.003514 8.217786615 -16.87664756)
(1928.792765 21.96775919 2.188608623)
(1945.449703 3.781417126 22.06959994)
(1937.352514 7.288444933 -7.120859562)
(1940.632482 9.381241444 -36.02570739)
(1967.054419 29.31066723 -30.43734792)
(1954.166352 -1.096012735 -14.56406948)
(1953.283558 5.751575925 -30.35712669)
(1953.921436 -9.874967065 -34.40337996)
(1980.011268 -1.71130703 -16.41519132)
(1992.728733 -3.441082691 -16.39368845)
(1963.689937 4.902853982 -24.5780931)
(1936.339825 22.71468114 -32.36843596)
(1916.478427 28.109551 -9.101762767)
(1964.293951 6.223536397 37.21743398)
(1957.438042 17.81083782 16.67974947)
(1975.819862 17.67840747 -2.630802222)
(1967.706073 7.449590271 1.575258539)
(1978.91856 2.346088508 10.69473733)
(2005.538718 -20.05240543 9.988656409)
(2007.56978 -17.36433274 6.087108306)
(1982.574308 -32.94511252 3.251343875)
(1960.783859 -44.6970115 10.49346866)
(1978.773857 -43.5107796 20.00893601)
(1973.748976 -58.62677594 9.213679453)
(1945.466152 -59.23513652 -1.087596076)
(1932.219947 -33.96195002 -3.082851741)
(1954.275311 -13.76602179 11.27785433)
(1961.88072 -5.344794491 9.547509069)
(1964.706639 -19.89971088 2.3326204)
(1947.917577 -18.18351167 14.56051593)
(1952.483407 -0.272534863 31.35084756)
(1926.821815 -19.62246681 35.73644823)
(1970.047497 -15.60136054 42.26491299)
(1975.665536 30.82745889 45.17921866)
(1945.639587 11.91976291 38.47869931)
(1954.222461 33.85664314 48.93529097)
(1957.416333 38.78182596 14.06685657)
(1952.878264 2.55667766 11.6550384)
(1979.161699 2.387474512 0.2359561189)
(1952.889699 -15.66953332 10.31520996)
(1949.585671 -20.36989558 -0.3692867656)
(1936.987014 -28.29526731 15.49455202)
(1934.553589 -25.45073084 9.210034278)
(1942.365666 2.011204837 9.232702713)
(1948.224966 -8.151943654 14.27157326)
(1942.561638 -32.40541865 33.98046884)
(1966.518107 -22.50301522 21.2742266)
(1980.683043 -37.28992194 41.7903714)
(1997.488841 -31.26657777 25.73427384)
(1974.439579 3.632398159 29.41928628)
(1963.725667 23.13604438 42.03207454)
(1970.142218 69.00880832 49.9156884)
(1962.625071 49.2401912 48.57139631)
(1977.969422 25.90301362 46.65766176)
(1951.850565 33.54246949 31.58144014)
(1957.614504 -34.53285491 27.6915669)
(1936.994972 -15.20040445 29.77278739)
(1917.708018 -16.42249868 21.80650482)
(1891.152891 -51.38627565 -3.854986593)
(1876.18706 -49.23685835 8.872045495)
(1943.985884 -38.10309438 -8.221805846)
(1976.844377 -18.61501532 -24.07377972)
(2012.484583 3.078300359 17.62634396)
(2004.000202 -18.3165394 -17.8900649)
(1973.45091 8.208788007 -19.29832046)
(1963.532919 2.680184766 -27.07526399)
(1964.388528 17.28135599 -15.24893649)
(1964.057039 7.71514188 20.25445619)
(1980.889255 -18.3643891 14.35399964)
(1975.954408 -34.62064193 -7.231164065)
(1960.125999 -30.9832602 26.58590652)
(1982.468834 -11.08035886 39.11362594)
(1991.172227 10.96235181 33.71355284)
(1937.657747 -43.96973643 12.91530812)
(1951.44212 -11.95761166 -7.282554085)
(1958.944991 32.64172256 -30.73451835)
(1974.382737 38.84118303 -20.09760882)
(1956.045806 12.38902758 1.097974443)
(1963.306475 37.72368074 -22.47679456)
(1975.810314 63.55874341 -12.47284898)
(1951.565032 41.9567289 -18.10480976)
(1941.393267 34.79725882 11.79893176)
(1925.353075 -22.95404505 21.82493297)
(1913.902251 -9.235297816 8.44981992)
(1933.67476 1.619252484 -21.60691533)
(1951.855557 -13.38871746 -33.79193655)
(1955.525339 -30.86795309 31.39887957)
(1961.821147 -18.48902544 -3.566202557)
(1950.326455 4.603130668 -5.543451707)
(1946.317306 42.75537987 -16.98330822)
(1956.028137 52.48755004 -28.12109927)
(1974.560127 16.02524821 -44.52509327)
(1946.805356 8.713560077 -16.23633874)
(1961.457347 36.77733982 -3.730960882)
(1950.646156 19.13175822 -19.83545328)
(1947.408127 -43.62528267 -18.67598782)
(1944.114312 -15.93239264 -40.03346662)
(1961.925719 10.24312481 -23.77051287)
(1975.37415 -11.04479083 34.70736648)
(1954.55781 -20.8857189 -4.860565067)
(1948.133308 0.4344601926 0.8806101001)
(1942.289957 4.12102112 5.09761931)
(1941.467265 -6.649058452 -12.01748844)
(1968.286481 -21.0911243 -46.13376421)
(1951.166558 -5.073561824 -61.34752998)
(1960.358889 50.48782259 -51.43293621)
(1982.495697 23.31862153 -69.13567892)
(1990.652761 23.75011493 -38.53287374)
(2003.234635 8.548968357 -32.06994192)
(2009.993831 -14.78610738 -45.88907358)
(1970.70541 -26.55410033 -27.79740895)
(1952.71939 8.550493634 -20.12126249)
(1988.182865 17.65511391 -10.5810951)
(1968.333377 -21.03277939 -17.37547544)
(1948.511656 -5.534822456 28.51317048)
(1943.330825 -8.297316735 -6.743401764)
(1923.364885 -13.35119078 -8.907530851)
(1912.227028 -17.88989348 -9.490189735)
(1905.228813 -24.5971726 1.553192932)
(1924.368165 -21.21888527 -24.2402465)
(1935.551364 18.96456697 -7.3221019)
(1934.584776 -0.2373498973 -17.42802402)
(1958.352312 35.89638528 2.29813908)
(1951.255243 35.53656675 -9.995515894)
(1972.700403 19.01308782 -26.16780024)
(1949.406096 9.267341298 -15.54492723)
(1948.600748 6.496947263 -7.047442305)
(1963.332196 20.62267013 -20.51042642)
(1944.33312 -20.35825981 -13.50069945)
(1941.221245 -5.035888179 -50.30225636)
(1964.727728 19.44806181 -8.948937547)
(1950.961305 15.12916992 2.746232884)
(1928.098301 2.947001512 -4.615061394)
(1922.833859 -12.38249832 22.27102824)
(1925.011314 -46.35361451 -10.10473307)
(1923.578947 -49.32543669 -20.73042434)
(1950.908879 -2.354500176 4.565192439)
(1947.57117 6.062560999 -14.18939676)
(1953.930041 -0.9872154965 -19.72198247)
(1944.226101 -0.125294398 -48.27440944)
(1947.228848 -1.873624251 -49.38230983)
(1964.377117 49.97791408 -39.97518621)
(1946.339524 49.43220795 -23.91719864)
(1952.681191 33.69926796 -3.219461193)
(1949.58825 46.25533848 -11.52581429)
(1943.470398 -6.309728319 -38.26576546)
(1933.753327 5.270518237 -17.2661744)
(1943.292936 18.31684218 2.637288407)
(1949.974103 37.77038424 5.139461567)
(1937.132513 42.27807165 -16.69716701)
(1946.433217 9.194821668 -5.862130845)
(1942.994261 -2.008328512 7.483532738)
(1925.063611 -6.265317994 14.52027057)
(1955.032735 -25.56188001 -9.971742218)
(1960.854807 -11.40126167 -23.5474491)
(1921.243144 -21.8271582 -36.22096363)
(1893.099551 -31.8286247 10.67687272)
(1911.383153 -12.68947847 -10.63676354)
(1925.255735 36.01324416 -1.012116544)
(1936.400512 34.94150668 -16.97536942)
(1942.674516 56.60058828 -39.91418449)
(1948.744025 47.08317003 -30.18971007)
(1962.631856 -2.520895311 -40.44672461)
(1944.725151 -18.66945419 1.342209599)
(1946.523333 -9.289549887 12.00570669)
(1941.879348 36.16631482 9.230137583)
(1931.166507 39.90555912 1.093377557)
(1924.730908 6.6723077 -23.1979918)
(1909.548217 21.80019642 -3.376499363)
(1929.442567 46.93505388 10.21405038)
(1930.579406 25.50146475 16.12313193)
(1928.810329 18.75558681 -5.162974087)
(1928.682552 15.5513567 4.656391058)
(1965.663749 -14.50113783 9.931314107)
(1963.335422 -37.81918022 -10.13640317)
(1966.06375 -16.41147462 -17.99693914)
(1975.637386 -0.5774540335 -28.92684434)
(1972.36295 -11.07605786 -33.78928303)
(1977.369594 -5.74733977 -51.7337451)
(1954.660037 25.55713265 12.22260111)
(1946.50032 -5.419958943 -0.429657199)
(1918.863367 -3.981864869 7.86618254)
(1902.213438 32.48716873 -0.6418545349)
(1912.348863 8.448488828 -9.84359072)
(1919.437847 4.299672827 -23.11010238)
(1928.696043 4.202576149 -20.62238775)
(1915.462938 -1.73481638 -13.68282327)
(1906.800766 9.262138876 8.980043364)
(1901.573759 25.28168619 13.60200981)
(1892.81919 40.28077892 -8.860823486)
(1912.29512 42.4849277 15.54381218)
(1907.963829 40.42705188 5.077405623)
(1925.371838 52.33532473 38.86607829)
(1910.360747 15.11814459 0.932062479)
(1933.980377 33.44343797 -6.178909336)
(1929.10103 37.37253223 -34.7921572)
(1909.153918 27.76177785 -32.97388384)
(1887.769668 8.546734687 -13.86776434)
(1870.568489 -12.82121902 -9.281767044)
(1905.471228 -36.9876898 -40.49743956)
(1927.738345 -5.507575137 -30.05493191)
(1933.534012 -8.610263915 -18.17092538)
(1935.977535 17.22807642 10.3779548)
(1926.983341 35.15672368 22.04618739)
(1916.982306 12.03985666 34.67705039)
(1904.019906 33.2365031 45.58403968)
(1896.39793 45.61897895 19.64537317)
(1881.809841 49.23908912 11.53841726)
(1881.925207 52.95470621 35.79203203)
(1900.941035 41.54308803 28.11154975)
(1927.57332 -0.967518892 23.22317373)
(1926.620027 -6.171603723 -1.356639333)
(1917.488978 -15.55357541 -2.86978459)
(1954.15711 76.08837864 -50.17176954)
(1945.570322 41.75682516 -27.46042334)
(1914.152535 28.80265497 21.13650039)
(1894.475618 15.61340636 24.71754977)
(1885.066612 -17.82552569 10.20064076)
(1877.262825 -35.6718661 11.40250708)
(1866.279535 -10.55722669 -11.79690891)
(1877.471649 -2.642126653 5.292293168)
(1911.146614 1.824440251 -20.59093089)
(1912.727845 -15.11966678 -31.83469282)
(1936.512961 -15.2488706 -38.9166134)
(1943.460682 5.980740082 -29.29711014)
(1951.176911 18.5158275 -34.46086845)
(1940.875494 24.76316951 -18.93647298)
(1930.985309 6.43717892 -34.70357782)
(1937.796891 19.92377383 -14.04228799)
(1950.00219 20.16364435 6.328837498)
(1935.220234 64.71797069 28.45465346)
(1952.681053 52.86954475 -11.560361)
(1959.030376 56.39068659 -21.59264343)
(1989.441233 -9.074241306 -32.65259843)
(1969.144911 -21.27497544 0.5125901734)
(1947.717985 -9.735287827 0.6305758745)
(1933.118871 -28.56780821 -4.882290273)
(1927.787863 28.87092289 -4.887156828)
(1936.710919 -3.995133015 -14.7999687)
(1925.366802 26.81341182 -9.256064557)
(1948.578526 41.38251327 20.19411799)
(1947.47433 21.88912392 56.59474608)
(1944.807578 22.50037294 57.29060008)
(1940.242472 6.750376958 37.98444386)
(1958.897686 16.83646831 33.37252298)
(1940.905471 13.82423202 -14.37829999)
(1938.897473 30.41333744 -7.845532069)
(1945.703471 3.170089532 12.24928172)
(1957.620951 13.34616247 -11.01035934)
(1947.504018 17.45124017 -24.31771878)
(1968.567296 1.210473914 -31.34082884)
(1954.583547 20.53298556 -11.03548702)
(1965.836537 -2.98111183 -27.90993835)
(1903.438296 -10.3946102 -0.721171949)
(1909.971721 -13.00621454 -6.377423818)
(1924.114142 8.976482063 8.156490622)
(1946.893373 9.516319719 -4.082240195)
(1939.167819 -23.96646213 15.03849678)
(1917.269597 14.99218013 -16.24789248)
(1919.84642 9.64859995 31.8386155)
(1898.135633 11.62284032 14.90165555)
(1911.038519 37.9349683 -16.48716341)
(1923.27581 24.55538499 -6.71040294)
(1902.363989 56.51279635 -4.911689019)
(1902.893093 48.86522965 15.49209071)
(1898.505153 31.99613132 -21.16834043)
(1950.432145 26.64348996 10.99732388)
(1943.54925 17.6109115 23.90189598)
(1948.275742 -6.880768496 6.269303453)
(1961.641295 -24.60304001 23.70346545)
(1947.118955 -3.419280194 4.352593413)
(1959.675481 -8.073937079 6.534719141)
(1919.628344 -6.252890356 13.5135682)
(1935.004951 46.25085654 29.51393905)
(1944.08701 4.939771487 24.70758222)
(1932.323025 -12.37095962 19.23849417)
(1905.282947 -22.83006256 -17.18803305)
(1915.795724 -5.631792866 -13.01675303)
(1933.344875 14.68612259 -3.589892107)
(1932.379629 22.90947015 21.08601445)
(1952.495039 26.36218364 -5.416749082)
(1950.621669 15.6023621 5.928239544)
(1936.118683 8.403715286 -9.575972424)
(1947.327257 7.778442439 -0.273631888)
(1949.992804 15.46108073 -3.100488273)
(1936.500372 6.376210806 20.78141436)
(1906.963651 -32.78935589 25.02783474)
(1923.11332 -20.43030989 18.07288945)
(1922.65159 28.4571932 13.89472448)
(1920.969781 49.36317749 -2.03404697)
(1907.247365 0.341044228 -3.226271561)
(1920.194471 30.37563769 -3.290492984)
(1928.144747 61.66272918 2.670068828)
(1914.040765 -13.57057813 -3.257547329)
(1926.092294 -11.81999304 -10.11157347)
(1948.612423 -9.593355429 -37.7265041)
(1959.651168 41.26566287 -18.30581011)
(1931.637003 36.58194178 2.821213085)
(1912.590739 20.18324397 -6.107445674)
(1937.197211 -22.07470567 -23.53660786)
(1937.084222 18.64152611 9.836656419)
(1941.790876 24.5536241 3.22028392)
(1933.726424 -20.94135876 9.122389239)
(1938.134007 -39.06734249 -5.050318459)
(1962.967599 -28.0030475 -8.330330023)
(1946.689196 0.02633734491 -8.560189811)
(1949.079694 17.80444722 -4.444036436)
(1928.783157 30.88299635 15.48765066)
(1952.824748 33.6249253 19.71667971)
(1956.016073 21.36120021 1.614009499)
(1951.372029 20.26960726 -18.68969704)
(1952.714921 -13.09953985 -41.9905486)
(1956.432926 -1.837238471 -10.13761805)
(1897.6316 7.341602551 -64.66326931)
(1906.87392 36.66352627 -43.48598648)
(1929.216713 40.82805745 -29.92030582)
(1928.736586 13.48172377 17.00733394)
(1944.88297 13.38336991 14.87978984)
(1927.781018 11.46246951 20.49042879)
(1937.183848 5.2642453 22.75114289)
(1973.065603 -1.82889629 -9.711790607)
(1965.624032 -33.32141691 -31.63016644)
(1972.365923 3.522052081 -16.27287491)
(1946.494247 12.7333868 -0.4716216685)
(1955.817028 -11.41720679 17.7039055)
(1960.550353 -7.736551523 -0.8576986452)
(1945.167364 -20.45342004 -3.834266878)
(1931.226902 -31.68180898 24.15056675)
(1923.801972 -43.83494254 14.48504568)
(1898.744868 -16.29228879 -10.43829642)
(1917.276383 -21.83028255 -6.786188997)
(1905.106799 20.05340098 8.757767055)
(1892.863566 6.702993524 1.996044638)
(1937.307699 41.21769442 4.16839167)
(1957.651795 26.08674642 14.68182705)
(1940.140228 4.334261911 42.62033913)
(1926.610593 -11.19729249 57.13524945)
(1924.970385 -10.22233388 32.14232409)
(1939.594156 9.925124658 18.40060266)
(1918.019834 36.48760995 53.61349274)
(1937.046639 49.9747358 49.49212453)
(1947.343287 52.54220268 16.54249703)
(1934.143665 16.57557234 23.4434087)
(1955.933889 -6.123784988 17.15476281)
(1950.410362 14.55926221 41.78959027)
(1961.067997 -25.8654815 45.40606015)