/*--------------------------------*- C++ -*----------------------------------*\
| =========                 |                                                 |
| \\      /  F ield         | OpenFOAM: The Open Source CFD Toolbox           |
|  \\    /   O peration     | Version:  2.4.0-MNF                             |
|   \\  /    A nd           | Web:      www.OpenFOAM.org                      |
|    \\/     M anipulation  |                                                 |
\*---------------------------------------------------------------------------*/
FoamFile
{
    version     2.0;
    format      ascii;
    class       volVectorField;
    location    "0.0006";
    object      UMean_N2;
}
// * * * * * * * * * * * * * * * * * * * * * * * * * * * * * * * * * * * * * //

dimensions      [0 1 -1 0 0 0 0];

internalField   nonuniform List<vector> 
5120
(
(1960.741093 0.8086528869 6.995634304)
(1972.133147 13.24669643 8.419596288)
(1978.32412 21.77422704 6.034116614)
(1977.300811 19.72373733 -6.926749788)
(1983.025815 -0.4696462682 -8.195476108)
(1981.338625 -1.883248182 -4.866829872)
(1972.975893 -12.7606778 5.165379189)
(1951.302965 -6.477134636 -0.9804199104)
(1942.097845 -25.16569455 2.74089605)
(1944.211236 -34.66608123 1.807489386)
(1946.979247 -41.76973484 -3.932008724)
(1953.000067 -18.78969247 -3.809005319)
(1949.98908 9.095566027 4.446248646)
(1970.844729 6.094332725 11.38000773)
(1963.596442 13.55472059 17.38095067)
(1959.313949 0.2374119111 27.05309035)
(1957.718056 5.620982396 27.80186189)
(1943.974933 16.68754193 33.46369524)
(1928.021005 11.59959929 22.59221519)
(1933.974192 24.02462941 25.97348663)
(1946.915891 -4.994757209 -4.281197549)
(1939.553535 -3.597834889 0.804587014)
(1940.931766 -11.75189548 16.00826748)
(1934.733333 -7.104460047 -7.952628512)
(1943.853759 4.987032652 -8.418583571)
(1951.033196 7.618854642 3.256402714)
(1964.207743 13.58678577 20.03737998)
(1970.23336 9.889901412 -4.196097303)
(1948.227882 19.960281 -1.827874009)
(1940.531639 13.93179388 9.985263987)
(1953.16902 10.84208008 -3.130964994)
(1946.92503 3.401109822 -9.19359793)
(1949.483886 18.23718728 5.774671561)
(1948.011653 8.269386374 -6.171697645)
(1933.375906 -6.372000472 7.256186)
(1928.842847 -14.37027332 6.944948594)
(1934.619837 8.326175036 0.2217238334)
(1953.668774 27.67007224 1.230894771)
(1960.754208 18.4097339 11.08177624)
(1949.765276 9.033731536 -3.16362857)
(1934.587151 9.54236202 27.99656337)
(1935.034412 22.30580105 20.42611795)
(1939.037208 19.97487695 27.42164341)
(1953.014504 0.2969493438 8.017233912)
(1941.487234 1.632461699 9.115889206)
(1942.596474 8.449194991 -4.047837198)
(1931.305901 -3.411608586 -6.441094755)
(1923.527202 -16.12476668 -7.66639096)
(1925.465181 5.393032091 7.573351004)
(1932.950532 13.39249947 2.804359891)
(1936.808981 28.89239086 9.297361877)
(1935.981641 36.29149823 -1.143797197)
(1924.808255 6.229618218 -8.769657226)
(1916.834465 -6.697860946 -15.06803601)
(1934.014533 -1.678656148 -19.06476615)
(1956.373297 6.008714378 -7.142236967)
(1948.446708 -22.27847743 -18.21893501)
(1954.993954 -17.6281824 -6.780040572)
(1942.329998 -7.976820159 -3.139594813)
(1944.59457 -11.3879176 27.16004374)
(1926.807209 13.36399038 1.81104876)
(1939.221805 -6.245365794 -16.91353565)
(1946.128244 -10.16333997 -21.73542693)
(1937.522244 14.70051151 -2.433922155)
(1923.331644 16.10035693 -23.54749859)
(1925.671864 12.54975512 -16.88102989)
(1933.027467 9.873110338 -10.63815909)
(1944.342491 2.7105256 -0.0141270048)
(1953.659175 -10.18041143 28.33271737)
(1944.97335 -6.339759258 16.77474712)
(1933.173313 -23.09313375 14.99655924)
(1942.54031 -19.51903402 20.85751343)
(1941.99122 3.553075764 10.32071308)
(1947.30462 8.135004282 -6.324093416)
(1939.807488 5.034545598 -23.87052892)
(1928.546024 1.643600196 -25.74657504)
(1940.709644 25.07264687 -12.38284205)
(1935.622435 31.64688282 -10.82979138)
(1936.8951 17.48618146 -2.119002201)
(1925.527122 18.80228427 -5.749462843)
(1943.840067 4.411926887 -7.250450976)
(1938.094498 -2.835042562 -6.080117422)
(1948.493876 13.45467263 -4.768979604)
(1958.523963 21.08367991 4.065588213)
(1957.185162 26.41897806 15.85479605)
(1972.413427 39.28203226 12.11752502)
(1972.500366 32.52025518 10.6525577)
(1960.479863 22.60451978 25.01375273)
(1956.220825 4.425110718 22.74558863)
(1957.607731 -4.396769821 19.92546101)
(1967.579927 -4.917997482 13.00230808)
(1961.65425 -7.728899689 8.133643975)
(1953.679625 4.777507274 1.352678766)
(1958.82093 9.336023214 -11.21039108)
(1962.397445 7.935317718 -17.24400808)
(1957.301071 11.52380342 -27.54841188)
(1940.772997 3.426461782 -19.54300799)
(1938.845174 5.153830483 -1.537119265)
(1936.282771 -5.881714036 -7.95129979)
(1943.701899 6.375636599 -14.53718467)
(1972.454852 -4.072578544 8.197528087)
(1978.6353 10.74542681 27.44102925)
(1979.844149 21.92702121 16.01468687)
(1975.204758 -1.218423911 17.96474432)
(1973.569861 -8.864798346 17.75675388)
(1958.788347 -4.203813122 10.29601141)
(1966.375276 -5.555911547 8.758974491)
(1973.330884 10.43510014 12.93077546)
(1978.476667 14.82950923 14.60657431)
(1971.669142 7.740204369 12.19996008)
(1968.206805 13.82236746 14.15050374)
(1956.801141 21.42088298 23.85141011)
(1981.668744 14.41281562 13.46779051)
(1965.127283 1.229170341 4.255887332)
(1956.539335 -14.63370828 6.40792391)
(1967.902034 1.717101159 10.7354493)
(1965.678461 6.923023571 17.41363135)
(1968.647475 -7.336508545 9.13565828)
(1981.616083 -3.391165558 19.44419578)
(1972.708011 -16.49019607 10.46894631)
(1956.547838 -20.74816922 3.628068832)
(1964.314319 -16.08205364 -1.744768397)
(1956.16264 -23.59840003 -0.5834843276)
(1950.454199 -13.58544819 16.9035252)
(1956.101573 11.56796059 9.701170354)
(1962.735181 14.76431135 17.34920853)
(1956.682863 21.47904217 20.58578037)
(1956.117931 46.32322933 16.1288441)
(1955.93518 24.68282368 10.46091911)
(1974.635411 23.38460562 -7.552728565)
(1973.25471 16.04060212 -10.97823871)
(1971.79712 -3.574182908 -2.256403839)
(1948.937934 -4.616835367 -23.95564827)
(1968.562599 -4.380541693 -33.34427559)
(1970.570895 -13.71961899 -29.29699555)
(1941.225662 -6.899673266 -15.34889488)
(1941.266308 18.22362622 -5.824254514)
(1932.680607 4.745450265 0.3024686134)
(1937.76008 -7.137654453 -3.50199281)
(1938.58926 -5.662502441 -5.815164737)
(1945.350516 12.93390661 -12.38852539)
(1933.728527 12.57273514 -13.66475386)
(1938.389451 15.20917697 -13.09816305)
(1936.649766 26.00714053 -8.912176134)
(1936.986213 20.178393 2.542777356)
(1948.972242 19.92623921 11.91652686)
(1963.467356 23.4668443 -4.406142387)
(1935.395375 24.75937235 -1.211954923)
(1927.868953 21.65822799 3.876599358)
(1923.0337 16.99364215 15.62717913)
(1940.874325 25.04004733 16.94758866)
(1950.309143 13.04502261 9.336822592)
(1950.85362 14.031398 16.89375781)
(1941.281307 10.25539661 6.963054762)
(1928.225265 -3.207925652 2.356030027)
(1940.348015 -19.505236 -3.284221347)
(1957.319249 -22.43605706 -2.276719514)
(1944.072977 -10.57622453 -4.193792512)
(1964.951981 14.29271626 11.73844628)
(1966.712682 2.289126387 0.6773856551)
(1963.091376 26.10539756 -14.23343402)
(1969.601878 20.71482848 -1.339444984)
(1966.379174 13.7911615 17.36790573)
(1966.815123 15.75606986 -4.335982364)
(1958.816287 12.19104588 16.62321283)
(1960.015498 22.73165431 32.42308177)
(1955.610776 23.17880985 24.81728295)
(1963.055562 12.91772055 16.80866095)
(1959.113046 22.96241236 9.87866574)
(1947.375244 4.116230583 -5.811821539)
(1948.863135 3.771621512 20.26368766)
(1947.617087 -5.898488586 14.64990723)
(1939.233559 -7.291258857 8.335197893)
(1936.909606 -4.740872037 8.265210497)
(1931.606626 14.82840538 10.91177987)
(1928.331148 27.52132447 21.14833631)
(1928.61721 28.20133032 14.32142664)
(1943.732863 27.86717825 22.29534487)
(1953.146432 33.98271797 -10.303848)
(1960.906548 27.83472371 -7.009498361)
(1925.640486 -16.29106629 6.408266543)
(1918.96396 -5.800154668 10.96178597)
(1934.270046 -0.1838465864 -1.031410346)
(1928.648572 13.47851639 -2.962938662)
(1931.114989 24.81263877 0.994190911)
(1928.667339 22.03365972 7.937635088)
(1937.216468 -7.867649811 -2.16331173)
(1959.133273 1.181764694 3.545353059)
(1966.225171 17.24136311 -15.01826756)
(1965.747793 15.66989165 -10.68654721)
(1980.456197 -5.949371498 -9.432243392)
(1973.987348 4.76657112 -11.42675181)
(1963.978579 8.744709973 -28.69567741)
(1938.904176 -0.8495433952 -12.17006731)
(1939.292524 1.607694764 -9.835526004)
(1935.938728 31.66495735 8.914639198)
(1933.070676 17.85022058 -0.2312495466)
(1918.173942 7.352308428 -5.331255621)
(1926.212246 -13.7036526 8.380317053)
(1936.893837 -29.96254999 8.92511984)
(1938.82626 27.19694792 -0.6615237741)
(1934.5066 17.63042007 20.23093201)
(1937.388692 18.39991822 12.30743643)
(1941.648926 13.55697676 2.830627706)
(1941.073592 4.409261183 -6.450505994)
(1944.303992 7.258042573 -6.289873436)
(1939.382629 -0.7907066435 21.48003151)
(1925.903769 13.50391284 2.621519217)
(1905.653435 -4.948704428 14.89222514)
(1941.137209 -6.118335113 3.394464115)
(1941.78124 6.116426136 3.302482215)
(1940.212377 -1.945249001 11.30159909)
(1942.548432 15.55874033 8.682587199)
(1945.26864 25.65420391 -9.672210552)
(1957.950692 38.61757972 1.865590971)
(1972.899062 8.996495972 24.02864993)
(1967.556283 22.73844902 26.97805534)
(1969.260745 23.98289496 4.136461663)
(1956.6222 27.63839011 0.1920884513)
(1951.81861 42.63120019 -15.80134196)
(1954.940914 13.90995203 -9.719784653)
(1942.382687 8.200191984 -12.44236785)
(1947.610592 16.37682875 -9.209604879)
(1935.514824 8.506920976 10.15956354)
(1934.536765 9.305243716 11.78262487)
(1950.962822 9.529469373 7.748286349)
(1943.330783 15.98934371 -10.68570795)
(1919.607985 8.677820908 -13.05491723)
(1908.411809 0.6148751865 0.3268702851)
(1922.574972 25.99318164 -5.634515627)
(1943.09887 33.75930942 7.984181248)
(1935.328949 21.62588945 2.210800693)
(1934.926136 17.88993599 10.2831838)
(1940.812783 17.20609211 5.451657354)
(1944.738639 23.27624855 -24.75953974)
(1949.890329 25.85501057 -9.526793213)
(1955.510527 13.14752403 -4.691931277)
(1952.160686 11.81506602 -6.990233025)
(1945.06452 -12.6961268 0.7527279081)
(1955.060257 -8.182292459 -5.039365778)
(1932.099408 9.215784064 -23.91147527)
(1912.557173 15.63371988 -8.367442304)
(1919.635943 16.70889288 0.5614127234)
(1944.743092 17.34289687 -6.12704913)
(1948.535786 16.16286829 -11.69081069)
(1939.20727 4.762073196 -21.71033571)
(1951.895802 -6.01623789 -7.80480326)
(1957.192121 -11.10589424 3.272035116)
(1976.35038 -1.631203066 -12.33344799)
(1960.483242 13.96228922 -17.62992401)
(1959.352344 -11.08023032 5.886110085)
(1948.854975 -8.802655359 -12.50394403)
(1937.969215 8.670109283 -5.120021408)
(1944.333708 19.79030697 -14.45503756)
(1952.379501 1.069241914 -6.453440219)
(1953.774684 -3.508169477 -8.273704537)
(1960.488776 -19.52785538 -18.55553014)
(1956.33899 -11.52676977 -15.44182014)
(1947.288109 -3.130852778 -15.64469734)
(1943.904962 4.827993467 -16.05941453)
(1936.596791 9.751653293 17.48929672)
(1933.781339 17.99136009 23.51026765)
(1929.596212 9.079558181 22.50528592)
(1943.19884 1.350228658 17.10557418)
(1953.966293 2.442838009 10.77243115)
(1966.354709 4.280870657 12.67155832)
(1944.288351 0.2426118917 10.18612259)
(1935.972419 -13.30684538 6.570641571)
(1939.883792 -18.04888697 32.18124468)
(1939.563875 -10.96937596 15.02654038)
(1950.364323 -3.638811911 7.912393735)
(1952.448289 1.030291568 -3.052052723)
(1963.042863 1.038739002 -4.004813579)
(1958.981993 -0.7058936275 -23.11095977)
(1948.162978 -1.274775893 -29.80206179)
(1949.715062 1.261873005 -15.73348662)
(1944.397191 -4.061000298 -19.43037825)
(1947.430494 -1.264216967 -18.2079838)
(1967.242139 -10.14848853 -14.09236626)
(1945.791824 -2.623759312 0.1775312389)
(1928.332474 -6.900022818 -10.60202997)
(1923.616954 2.414045004 -20.12522605)
(1927.519172 11.23180059 -26.8318957)
(1927.685453 16.19847695 -25.57649267)
(1934.520211 12.70582593 -15.98332647)
(1918.359583 9.302144568 -12.56838869)
(1940.33893 -6.156521988 -14.10045725)
(1956.283871 8.842613117 -19.84194718)
(1962.83524 11.61675182 -21.8454583)
(1964.128713 27.18954184 -11.94334223)
(1954.744256 15.38136283 -33.15309292)
(1948.895331 0.9690444769 -42.6857173)
(1953.474168 8.441516848 -29.11487408)
(1956.148039 -27.16758597 -16.92554476)
(1957.134761 -28.61234744 -7.052562998)
(1964.574306 -11.8273336 -8.444059169)
(1964.180323 16.11432435 2.596470168)
(1943.693664 17.8193984 2.394370939)
(1932.481023 0.06547162995 -5.475919144)
(1934.759381 -8.868526998 -16.29329758)
(1956.221903 1.452038023 29.25877226)
(1954.968021 13.69507828 28.39005071)
(1945.018875 8.415920844 22.20277198)
(1950.632399 20.19310434 8.72030372)
(1959.299867 25.2031291 2.113283541)
(1975.96769 20.84372107 -6.293345732)
(1974.788882 6.124267358 2.592321558)
(1987.357985 -5.608025466 -3.036221798)
(1992.809638 -0.8722684794 -2.906399764)
(1972.600744 -0.6251444882 -11.31162073)
(1960.353826 0.2716077294 2.818042767)
(1953.110402 -13.64766066 37.91196866)
(1961.695412 -19.21764896 43.96676227)
(1968.713296 5.417181837 37.63786799)
(1964.007001 14.65682525 40.80291784)
(1950.984141 11.67902411 38.04158656)
(1935.458455 -19.52115772 44.64701874)
(1937.938461 -3.10290625 38.90433545)
(1957.107486 4.914294095 12.00929759)
(1953.482314 0.4628443534 2.884650866)
(1954.215017 -4.597765209 35.97511336)
(1941.715881 -3.229174463 10.28012294)
(1949.860351 -1.099780951 1.413400013)
(1957.249832 -0.141919108 -1.0576482)
(1951.924236 4.603644395 1.77222232)
(1963.193027 1.802894866 -0.01558095817)
(1953.253035 -5.960734363 -10.10111091)
(1959.490665 -20.76773906 0.1910899427)
(1953.791702 -8.976729738 -11.89346602)
(1951.301496 -13.85945292 -6.447326112)
(1963.007983 -3.512646641 7.134672552)
(1969.138417 -8.495516658 4.617782347)
(1957.185658 17.46549488 23.3139713)
(1961.201312 13.22771215 25.54115738)
(1967.287462 23.90742457 15.54477638)
(1965.694989 10.05680845 7.287148891)
(1950.682477 9.984344105 -4.314954267)
(1960.453006 -7.452324634 19.75927069)
(1954.368764 -16.63823118 24.97513963)
(1956.12573 -14.90113436 19.69410157)
(1938.685887 -8.270069679 7.802163579)
(1948.310574 -2.129625899 7.789944198)
(1916.116255 -10.92345501 -3.471351449)
(1909.338241 -14.6940689 0.6150323157)
(1914.496301 -6.065167491 9.701703398)
(1900.052394 -29.89367507 -3.293509915)
(1908.545936 -3.998761464 -4.79518093)
(1919.300985 -17.09509568 11.39255078)
(1928.944805 2.961433739 6.43973256)
(1916.935154 12.42189403 17.09319146)
(1922.616766 -13.09647265 -3.13240181)
(1937.388765 4.030094674 -1.908797997)
(1942.643595 -3.20576171 3.680984747)
(1923.002261 2.176385045 5.729819525)
(1946.640819 8.89443733 10.08082227)
(1948.740575 23.65653026 0.1886519111)
(1931.088807 11.86424358 -6.886022666)
(1924.882202 -15.50545508 -3.213370853)
(1924.514518 -16.49531786 -8.091044183)
(1927.405079 -14.22291551 -11.05294019)
(1950.178423 -14.28125011 -16.3176175)
(1942.33918 -16.65233526 -7.210565164)
(1947.62322 -7.073548733 -18.19608694)
(1926.948483 -9.577375374 -3.737370932)
(1919.200649 -5.734746999 -1.203725307)
(1942.717767 8.782943211 -7.178955698)
(1947.65106 19.52068933 -7.834313019)
(1941.181157 18.80618401 -17.66529193)
(1920.694603 15.61656843 -22.57132435)
(1926.986696 18.16458191 5.974306144)
(1926.251705 40.93276988 -5.826489732)
(1922.391848 26.58881355 3.693007247)
(1918.422015 24.3881164 10.92599197)
(1925.339446 7.207186323 10.93917588)
(1923.516002 -3.593051776 0.5604335257)
(1928.63596 -17.72660953 7.898986012)
(1962.877206 12.73846599 -10.7100103)
(1958.372836 10.68089266 -3.142085247)
(1957.294624 -0.8361818433 -22.63005881)
(1961.275682 1.277924 -10.59793867)
(1945.226265 7.315363356 -13.83344216)
(1948.976176 8.441485757 -24.70427863)
(1941.653547 -0.3123738671 -32.57633902)
(1922.949429 -10.10480756 -17.02221816)
(1935.547175 -12.95143437 0.3772895303)
(1940.3103 -8.889525062 2.034073014)
(1957.020241 12.23157109 9.64246086)
(1950.754356 9.175935952 18.75422168)
(1934.313678 10.9021498 8.324312194)
(1930.527671 -1.363873387 -6.753795807)
(1933.811894 9.134156375 -7.290101446)
(1925.454981 -1.408794622 10.45670513)
(1923.790932 -23.63697484 19.64216666)
(1929.769799 -6.553297474 35.15945112)
(1942.976664 2.516784084 24.49268692)
(1939.182604 3.588336218 18.38406171)
(1916.176131 -18.28111042 10.15614819)
(1926.198201 -14.77198176 -0.01235565653)
(1947.764045 10.64881954 1.021838068)
(1944.388889 2.869224 -14.64022672)
(1925.609824 -10.01062439 3.272276197)
(1934.109421 -4.513575543 5.858193511)
(1927.08502 -1.538617001 8.968530191)
(1933.849866 8.558240071 10.75762456)
(1952.750711 8.580915886 23.80217105)
(1943.758754 -3.285385104 35.63572147)
(1936.270091 -11.69109868 34.66282372)
(1931.999105 -23.63419647 17.42864962)
(1944.789734 -5.134146966 5.122609302)
(1946.597533 -0.1186388841 1.830835408)
(1945.129892 -6.62555667 -0.8478779505)
(1944.56553 -5.896806927 -12.02290107)
(1943.44932 -8.941855137 -9.62357931)
(1916.904173 -8.827227454 -11.13000997)
(1939.64037 -8.619991004 -7.472050125)
(1927.74144 -4.205679422 5.482119535)
(1922.723461 3.219898371 -7.368427023)
(1917.422173 4.735255411 -16.78739699)
(1936.418949 -8.365561154 -25.6948861)
(1932.236163 -5.704235111 -26.88311387)
(1947.470345 -17.42817446 -16.30480957)
(1947.337604 -18.41373084 -21.260236)
(1943.426523 -9.531530479 -9.411848489)
(1939.992749 -10.11173507 5.930631831)
(1930.982627 -23.9326998 15.37740627)
(1938.056676 -22.30835902 29.74249488)
(1943.353695 -20.52915993 29.75453957)
(1940.465069 3.442786807 11.69539689)
(1949.017349 10.93870698 14.90828548)
(1954.997011 31.96944542 -8.085736989)
(1956.745179 39.72898337 -23.42507522)
(1941.639346 14.8781279 -20.92185903)
(1948.195481 -0.06419709158 -25.43279461)
(1940.726881 5.849397288 -11.65612503)
(1943.815586 0.9555957262 -6.279951957)
(1928.185921 -9.922754766 19.5523677)
(1938.243061 -3.176830179 17.78984627)
(1950.989553 -7.617600576 12.14323578)
(1946.501305 -2.427716151 -4.229535913)
(1959.184494 0.6952905505 -6.834263179)
(1947.843325 14.48480033 12.66540785)
(1956.580056 3.876115921 10.92849109)
(1979.828835 -20.2848133 11.92583071)
(1976.472167 -18.35264739 20.10230001)
(1983.32826 -13.74848312 1.328144849)
(1957.562896 -16.70963716 12.88648281)
(1945.556687 1.7113737 1.523716653)
(1937.063836 4.33168916 3.833066925)
(1946.691482 5.043084179 -19.0012517)
(1951.486395 6.644657761 -12.50895496)
(1954.005577 9.595300207 -18.79357758)
(1957.016972 18.20725036 -2.549001976)
(1938.714547 30.67232921 6.333378317)
(1937.90094 14.55873604 1.888043419)
(1933.4364 14.81068142 -13.11098346)
(1944.699186 6.379365054 -10.67415832)
(1953.072222 -12.00593105 -2.744184391)
(1959.586794 -9.743711674 5.303583243)
(1953.199335 14.73557671 -13.4796619)
(1965.161568 13.35814788 12.80910588)
(1962.605262 -0.4298874382 32.04149598)
(1958.542713 10.32431932 31.98269614)
(1958.760767 25.28136031 15.8576294)
(1965.369549 16.89798083 9.829934074)
(1953.884775 5.238305465 -8.131270454)
(1952.875732 2.15441095 -33.47920882)
(1963.235461 -8.907501486 -23.7558372)
(1957.650922 -9.898864757 -8.511748174)
(1963.240973 -17.88221386 1.686981819)
(1952.051755 -16.84588008 -3.184157323)
(1934.891935 -19.72092019 -2.254221946)
(1928.590013 -15.71147557 -2.042176848)
(1934.243354 -12.02214349 2.43918036)
(1931.462767 -4.358186142 -6.788934648)
(1938.963408 0.2606596091 -9.575953732)
(1945.086789 11.11585698 4.314188452)
(1952.866364 7.659966986 -0.5680803385)
(1950.509222 -3.90781086 5.236620881)
(1939.362507 -16.10348893 13.68539664)
(1950.067298 -0.3076220626 29.27729901)
(1960.915229 -7.326758114 9.461298522)
(1951.246409 -22.56710123 11.91938794)
(1952.490785 -20.2896648 12.48189244)
(1956.046055 -8.806876706 17.2342085)
(1961.441061 -0.4291397466 14.23060794)
(1954.665023 -3.357689849 7.543412588)
(1962.127236 -6.279936822 11.59023705)
(1953.550159 -27.4431027 17.90644956)
(1953.002905 -30.45528418 12.08405241)
(1950.845095 -24.00810201 -3.971293258)
(1955.587191 -9.123669958 -5.143977575)
(1954.134352 -12.23606812 -1.954565655)
(1950.139684 -19.36879837 7.453440409)
(1937.805732 -9.577749535 12.02203286)
(1935.753307 -18.51428891 12.1920597)
(1932.979374 -22.94709947 12.89362117)
(1943.642838 -7.954233642 5.330045668)
(1954.055068 5.080879822 5.69315769)
(1950.929982 17.05626582 0.4922228049)
(1950.052746 3.868184873 3.632604553)
(1936.121044 1.204532307 -7.182463383)
(1926.043788 7.306233351 0.3231473619)
(1943.308429 34.10980349 10.70203645)
(1944.615578 25.85856501 18.33139534)
(1935.212503 5.628055801 8.08244072)
(1942.705532 -0.1171294428 -5.919696188)
(1927.519996 5.565382346 -6.329585447)
(1928.745941 27.15843528 -1.558880257)
(1938.616526 29.54660855 11.59763401)
(1939.566201 24.18776212 -12.23909013)
(1952.61275 2.516341497 -26.81285642)
(1963.611607 5.728705076 -18.31526829)
(1957.662142 -3.112690193 -24.70503689)
(1979.189483 -5.395465713 -13.55451485)
(1964.483241 22.01625702 -7.139780684)
(1955.070569 8.933353615 -12.05020833)
(1963.195183 19.14814056 2.649177362)
(1941.569309 5.388143913 2.100099425)
(1916.121805 -1.135800711 7.309624717)
(1920.30621 -4.377819764 -2.734619756)
(1927.324037 32.09998865 -1.845988458)
(1935.522494 17.89286157 -4.547291231)
(1926.741646 -19.16113392 -7.405006837)
(1946.157582 -18.53370624 -10.27300045)
(1941.727137 12.87242706 -23.59199206)
(1954.903204 3.416048514 -27.54996411)
(1938.253275 15.59084294 -19.26000397)
(1943.837765 -0.6737191259 -25.69558706)
(1944.068699 -5.285681531 -8.407631353)
(1933.146246 -10.05227828 23.66991956)
(1932.797944 2.602432579 10.72440871)
(1929.812601 36.76858882 -4.839961138)
(1930.457748 33.39248733 8.917133514)
(1929.197865 21.94364582 3.045148557)
(1906.77398 9.204116112 -1.083176579)
(1915.551733 0.8865635117 -12.72474377)
(1908.855469 16.16505633 2.370360913)
(1910.868347 33.45780708 6.256691204)
(1923.459586 36.66125734 11.84243328)
(1917.179948 32.79423424 -5.580533061)
(1921.587131 -7.207842013 18.41074361)
(1936.209285 -8.408694742 11.53844661)
(1944.287019 17.8621644 -13.58712469)
(1933.518527 15.6228447 -18.91483852)
(1943.329831 12.92613946 -8.896014814)
(1915.54967 10.54813025 -9.466095379)
(1907.575526 22.23506867 0.5702731195)
(1920.834444 9.666237889 17.96861834)
(1924.68657 17.31559221 6.446194294)
(1954.557531 32.94924858 13.32342857)
(1950.734186 34.90415065 16.47838626)
(1953.789303 4.361186504 -0.3581058614)
(1950.446141 -8.198000458 14.35425366)
(1930.858407 8.379197023 10.22802925)
(1944.972915 0.4694057756 22.35239466)
(1930.969102 22.48582502 18.95098754)
(1930.031877 4.777289901 -11.00995066)
(1925.431262 2.469830371 -17.70108409)
(1923.023469 2.120681288 -3.806156988)
(1930.324356 -7.203663204 20.93237542)
(1924.729163 8.004315164 4.18980733)
(1928.753061 9.090424205 1.892360091)
(1940.687803 -10.03501657 0.1201361464)
(1926.111241 2.704432752 -0.3893981914)
(1922.424088 6.394685968 4.482261228)
(1939.908288 -1.129382846 3.771175637)
(1947.749883 3.653308626 -1.510413084)
(1938.65761 -8.699500546 3.453380005)
(1922.653423 -3.325446013 6.339200811)
(1912.767077 -18.63033695 -1.483015928)
(1921.173675 -0.6316615576 -16.89924642)
(1922.346011 16.72855962 -2.209079427)
(1925.529579 11.35757295 -6.583097197)
(1939.334845 -18.85683429 -17.36908645)
(1921.802933 8.580971643 -12.64257682)
(1925.435986 9.760893035 -13.60024449)
(1919.620498 5.525757678 -11.80452639)
(1940.092128 1.385178056 -21.88753816)
(1933.111587 -4.201034685 -11.77324046)
(1909.308733 -11.07574466 -15.41681867)
(1966.633066 32.62351688 -9.699384001)
(1955.990587 28.52328991 -16.54543466)
(1944.242489 -2.17579547 2.380461045)
(1961.842819 -13.7009727 -10.53879988)
(1968.173015 -31.78415408 -12.67615123)
(1950.306067 -16.97669966 -1.994797532)
(1949.454412 -10.02303329 15.21626007)
(1943.265367 -9.771185338 8.529629185)
(1942.227241 -28.22503614 6.340403843)
(1937.556038 -26.85856152 8.449702202)
(1949.566353 -22.25284917 10.52187734)
(1940.281591 -2.51557178 2.81024657)
(1932.084783 2.949046378 -12.32201475)
(1928.943535 1.045860761 -17.87917784)
(1937.285927 18.54250851 -8.444154553)
(1947.880363 22.74827482 -33.54686742)
(1948.631851 13.16667104 -9.250139535)
(1954.289495 18.26666829 4.96561974)
(1959.202949 28.19507685 -4.551260918)
(1961.649956 48.299443 -7.656540298)
(1955.560239 16.57536407 -9.187156672)
(1961.321536 7.540033468 -7.475325943)
(1950.797105 20.57054529 -6.729032793)
(1925.459137 -1.109888981 7.58410721)
(1925.950675 2.334740944 2.696965366)
(1922.369397 2.88585363 18.7048014)
(1936.369785 -2.806173357 7.043729316)
(1946.935732 -13.76260115 19.18124778)
(1939.655272 -9.788750149 3.094886428)
(1939.086595 -23.98858598 2.195094909)
(1936.239192 -8.465149271 8.856713184)
(1920.077808 -20.9107509 -9.329145581)
(1935.463996 -10.43674369 -6.17517771)
(1960.688792 -6.91968564 6.103035155)
(1933.791923 -15.37353228 4.85370985)
(1947.752736 -28.44276695 18.27893804)
(1967.256786 -26.90292959 25.68669859)
(1946.227164 -20.33467478 9.43246675)
(1960.428087 14.03867565 6.717366691)
(1956.844345 22.06926163 -5.182583012)
(1955.473796 -7.958962536 2.978355272)
(1948.853762 -3.003232854 -8.521828322)
(1955.107244 -12.4708457 -21.23830041)
(1947.645944 0.7922267567 -7.956011831)
(1935.153734 8.302077709 -17.99706701)
(1921.09377 21.50030156 -16.09690121)
(1940.579281 18.87292691 -1.613617432)
(1948.663642 11.88145894 3.210952884)
(1982.060353 -3.188282162 18.59502014)
(1989.434032 -5.740398746 15.344937)
(1994.306133 -12.01270794 7.530635738)
(1983.18612 -12.86454161 5.668666911)
(1977.953163 -27.74335224 24.81219314)
(1958.289672 -25.872858 12.98974333)
(1962.139568 -33.20179224 4.850959948)
(1953.567078 -15.53472112 9.633442985)
(1962.548662 -4.031510949 -3.399060033)
(1969.067102 -9.252463839 -17.61534102)
(1967.377078 -4.543518734 10.85740348)
(1950.314029 7.803575257 37.15650148)
(1937.524622 -33.41688623 9.653305411)
(1922.847188 -25.94773037 12.98278595)
(1929.179115 -14.32177343 19.22717097)
(1933.544616 -7.30421152 14.32711244)
(1946.552677 -2.251781817 2.744917215)
(1940.127396 1.598301839 10.41181085)
(1945.610063 -1.755444846 6.825074187)
(1960.318942 0.3457198623 -0.5475084575)
(1961.510494 -4.262968468 2.684451604)
(1961.22714 9.793846453 -5.848521275)
(1970.121398 -2.698050487 -19.24893775)
(1967.866043 -12.22428971 -7.597711765)
(1956.936462 -16.56355529 -12.03261311)
(1949.105194 -17.03422566 -24.74240256)
(1944.611173 -2.110720652 -15.79157192)
(1940.796599 1.212496512 -17.26378447)
(1952.22456 -12.36770968 4.189620673)
(1960.229147 -22.4249817 -14.91450627)
(1948.268709 -28.18831966 -18.17241452)
(1934.374873 -32.11696349 -3.094920805)
(1939.803829 21.95987888 -5.277554986)
(1935.378002 12.3974777 -8.289044732)
(1926.482226 15.97854893 8.164748866)
(1930.50311 10.52764447 -3.168490383)
(1937.203426 -6.645339324 -8.305786134)
(1931.857617 -7.498516126 -7.602622539)
(1936.30899 -12.63186588 -3.000972706)
(1947.778257 -3.451102562 -8.735606662)
(1932.664452 2.886849742 -13.2713151)
(1927.63341 7.815203687 -11.85302427)
(1933.617459 9.712694341 5.756463508)
(1934.594787 17.63971053 -10.01012293)
(1944.220781 15.30302491 -25.72446532)
(1934.260344 0.4143971166 -14.98758356)
(1920.87738 9.777702795 -24.62698558)
(1933.523267 16.89017762 -14.75827884)
(1940.906526 28.22044764 -32.88836548)
(1940.73892 21.66450358 -28.8950319)
(1934.262197 18.47484509 -14.31647889)
(1946.727822 16.41681553 3.690263025)
(1924.501957 19.48969911 0.2037832919)
(1927.314312 11.17356607 -6.509432865)
(1943.975096 27.41263496 0.587118454)
(1942.781074 24.89728371 10.43147999)
(1938.898583 19.56488399 -1.396147819)
(1928.420739 24.59104777 -7.758108561)
(1923.248506 14.51505119 -17.45623289)
(1925.941302 6.781170689 -24.04123871)
(1933.97965 10.08381148 -13.99129351)
(1951.750466 21.07141513 -8.271026657)
(1950.774294 14.8836657 -25.85050111)
(1934.803248 1.398154578 -22.69815327)
(1926.834023 8.924460598 -3.726178616)
(1934.657723 20.78725576 -23.45924269)
(1941.132817 22.57370936 11.41114671)
(1940.977292 8.482249487 9.887562569)
(1934.610476 -9.252665758 19.24654514)
(1941.079215 -6.533028984 14.80205553)
(1944.590858 1.118514483 12.35254524)
(1925.919336 5.76349604 2.608476409)
(1939.576125 8.623409834 -7.117890518)
(1956.901267 19.7407177 -6.618229051)
(1944.195082 17.14976531 5.740868768)
(1944.994995 27.02231897 -3.254336045)
(1935.138366 12.62048783 16.05698829)
(1932.995917 33.24657105 22.58086701)
(1952.5631 29.08696702 -5.934127581)
(1952.147598 2.241863095 -12.18851911)
(1950.215991 -1.110707591 14.2880035)
(1937.602611 0.3990440534 12.61855975)
(1949.420708 -2.558143864 34.70948222)
(1950.134037 2.81860875 5.394742297)
(1946.387033 20.79643302 -6.944638508)
(1952.7166 19.11632173 -0.7887097383)
(1945.72752 4.652672993 6.375312024)
(1946.229221 17.4296141 5.687466002)
(1934.569959 17.08124419 19.74368618)
(1943.231016 43.51107004 13.33493546)
(1922.995167 22.61533908 2.519589949)
(1925.626804 -0.8828594619 9.477627047)
(1953.627367 33.30681423 29.41961359)
(1944.19714 19.1916918 24.05867365)
(1954.708252 0.09435444985 36.59801953)
(1954.446286 3.068419748 23.74694419)
(1966.146031 6.789412777 12.28506841)
(1953.215133 16.78526195 -2.451869313)
(1938.970989 8.893600271 0.04358588089)
(1949.79242 14.55690471 7.936487876)
(1937.68467 9.264828565 10.03393854)
(1940.74195 2.96707649 5.203903362)
(1936.761801 14.17003057 -7.198018975)
(1947.329267 -0.01608332174 2.249984675)
(1946.780806 7.182093976 -7.807393105)
(1957.119211 -13.82711331 0.4488081906)
(1944.798237 -12.6907891 -1.512507246)
(1953.025175 0.8327067604 15.74399771)
(1941.868671 1.099845417 26.2627595)
(1933.504039 -15.40604474 17.17063018)
(1940.902718 1.025563861 19.27933393)
(1943.797698 24.0599318 30.39274064)
(1940.616798 -6.668843407 5.316720997)
(1935.568483 -4.898145685 10.57544927)
(1938.901477 5.814861273 8.291991368)
(1938.206453 11.00731881 11.27811095)
(1947.230712 15.07757585 6.390151012)
(1962.798404 6.629047051 -5.26696834)
(1960.890005 11.12440438 1.286656495)
(1959.953606 13.48464884 -13.12247974)
(1957.81908 -2.69196592 -11.73212382)
(1949.640537 -5.008193263 0.5588004939)
(1961.838615 8.666901266 -17.16088678)
(1967.846169 3.120434842 -14.36770155)
(1980.192432 -6.674050719 -3.696613515)