/*--------------------------------*- C++ -*----------------------------------*\
| =========                 |                                                 |
| \\      /  F ield         | OpenFOAM: The Open Source CFD Toolbox           |
|  \\    /   O peration     | Version:  2.4.0-MNF                             |
|   \\  /    A nd           | Web:      www.OpenFOAM.org                      |
|    \\/     M anipulation  |                                                 |
\*---------------------------------------------------------------------------*/
FoamFile
{
    version     2.0;
    format      ascii;
    class       volScalarField;
    location    "0.0009";
    object      Ma_mixture;
}
// * * * * * * * * * * * * * * * * * * * * * * * * * * * * * * * * * * * * * //

dimensions      [0 0 0 0 0 0 0];

internalField   nonuniform List<scalar> 
5120
(
5.490377622
5.612469135
5.67844519
5.703366559
5.576640839
5.619013911
5.63840004
5.662827524
5.768713494
5.714225402
5.68593
5.650667977
5.679841346
5.646767938
5.644904556
5.681195653
5.744227216
5.749889901
5.695900315
5.566571801
5.669471464
5.619822936
5.57951931
5.594553841
5.651323905
5.743473163
5.777215537
5.650807222
5.503632424
5.569632188
5.55917546
5.660758385
5.588181443
5.689096302
5.738195187
5.609026088
5.715836658
5.658525738
5.512047153
5.555932583
5.50218201
5.530565045
5.579036661
5.650198122
5.738828191
5.640122093
5.560961559
5.583639767
5.621063369
5.629539031
5.648131575
5.621964943
5.6903154
5.743579923
5.606906278
5.481493971
5.554664687
5.605906061
5.7246679
5.540879646
5.682351839
5.515733658
5.419838406
5.513833363
5.611325715
5.613781846
5.476987738
5.548047719
5.59425536
5.492941404
5.506140234
5.582108163
5.525021004
5.453686217
5.535063634
5.523034428
5.496088886
5.592639626
5.593846602
5.70846932
5.492486701
5.558789356
5.814320412
5.672052988
5.783191583
5.68119238
5.607088484
5.425546325
5.415028098
5.599427154
5.617821299
5.680447492
5.682387448
5.723800409
5.808063451
5.694258148
5.547563445
5.431564765
5.556408821
5.475361066
5.767587346
5.849950417
5.668846039
5.595734427
5.640336927
5.572107021
5.611899956
5.548600909
5.4747405
5.407481082
5.538124398
5.634487706
5.704848626
5.67349345
5.698910218
5.652562241
5.691827999
5.73658932
5.645088685
5.717067877
5.524074127
5.646106065
5.512034041
5.438561547
5.490879758
5.606378375
5.686758767
5.698169649
5.694411687
5.716779231
5.627305743
5.522703331
5.55478527
5.608900043
5.756965604
5.842420685
5.693025963
5.735461761
5.725106983
5.580524545
5.713876771
5.598299079
5.578380239
5.631370306
5.582179868
5.623899538
5.542356084
5.758799371
5.843077981
5.717816926
5.690432505
5.735718809
5.690621365
5.682591409
5.6972195
5.540449018
5.573332661
5.603351919
5.658344907
5.710795641
5.530968351
5.622011565
5.676176405
5.675920476
5.697548239
5.668044761
5.593819743
5.666957448
5.621277783
5.608774828
5.670537724
5.598324163
5.610082773
5.573780017
5.615298666
5.635336218
5.619079671
5.601766988
5.637314128
5.527208965
5.562492986
5.66688727
5.597589038
5.663233305
5.767554328
5.757085157
5.755013334
5.728425176
5.625376369
5.526024147
5.516565407
5.518655328
5.551863497
5.523916292
5.543607488
5.517494268
5.597079229
5.571528135
5.488616215
5.528457324
5.628982206
5.522550854
5.623852728
5.633715003
5.54663856
5.471002808
5.44420598
5.488716808
5.497051881
5.367173044
5.41462649
5.506353502
5.610011732
5.719283532
5.579079955
5.688065627
5.703723267
5.628069545
5.584452454
5.483428292
5.43663202
5.541236443
5.584626203
5.483115688
5.447159626
5.550448047
5.576907971
5.540664074
5.66690379
5.626813197
5.650084104
5.560529179
5.458769972
5.621297859
5.486515494
5.56054084
5.624249571
5.463426025
5.545676013
5.455593774
5.574607639
5.505698958
5.494156611
5.522077839
5.479129908
5.407192958
5.593771313
5.673734949
5.699880166
5.627019208
5.612120297
5.651053356
5.727460223
5.612262955
5.558655115
5.587261681
5.612891725
5.641278779
5.548533904
5.596246431
5.714776129
5.6589243
5.631698443
5.596969117
5.472107717
5.457648975
5.484097873
5.601303561
5.719874225
5.770994148
5.642994101
5.818022695
5.709466431
5.628192516
5.615479856
5.580244069
5.700198427
5.73517071
5.684404001
5.672963073
5.72107487
5.846602846
5.732691359
5.72780832
5.602257684
5.66404782
5.772266651
5.571597122
5.482675758
5.515275425
5.494105451
5.498626007
5.479123258
5.504539741
5.594609066
5.453621576
5.406090997
5.619475062
5.724212948
5.676141498
5.627213614
5.672551528
5.599395552
5.568966707
5.611798845
5.509928954
5.565378938
5.447501173
5.409549559
5.49555876
5.406599303
5.446065756
5.508901025
5.477945231
5.420040365
5.613780536
5.736531777
5.863044269
5.744818796
5.655738486
5.494062127
5.551614458
5.570096713
5.644630599
5.685229313
5.767932164
5.868681573
5.855315963
5.716692625
5.678929979
5.70724051
5.683686429
5.685162137
5.654058721
5.651474873
5.574320847
5.5065118
5.518470467
5.612428232
5.490602254
5.665026995
5.480007001
5.467667647
5.554270045
5.606744155
5.601468688
5.623062711
5.642935369
5.634961187
5.506335851
5.558504261
5.647636661
5.650870416
5.608858683
5.578246233
5.588456304
5.414314306
5.434792866
5.514680321
5.707975275
5.66387276
5.833503922
6.018062191
5.72686809
5.652206082
5.719349132
5.81712412
5.649527961
5.583114846
5.560990145
5.544531266
5.524323302
5.411484339
5.466894513
5.440121782
5.556418391
5.623316433
5.623994
5.633004389
5.606373175
5.61459072
5.558542831
5.519333838
5.487270321
5.554592693
5.552151762
5.528673168
5.589251783
5.589971241
5.625498512
5.559025319
5.61845274
5.577613914
5.454196634
5.462165473
5.458421281
5.596148067
5.682577903
5.558607874
5.554508722
5.705593882
5.690267404
5.626522228
5.483797337
5.489446636
5.512645391
5.700820278
5.758585806
5.742410565
5.685023599
5.751053734
5.449407148
5.51580026
5.59309103
5.570354758
5.641141715
5.603663493
5.65101409
5.599771101
5.597738507
5.345253106
5.324715766
5.310247409
5.544076482
5.534135524
5.552923734
5.44604855
5.539390837
5.783479583
5.867360733
5.779193405
5.736417008
5.461400263
5.44069867
5.483338281
5.528062929
5.593653786
5.480181192
5.408089947
5.349077256
5.634849671
5.588401986
5.707059542
5.596055444
5.741388543
5.729526494
5.631173726
5.691257449
5.647010441
5.691475002
5.64716998
5.577033993
5.664625011
5.631380571
5.703019638
5.61573165
5.688538632
5.676249948
5.566290655
5.570798326
5.70503873
5.778120433
5.766587682
5.582592789
5.5921092
5.67153831
5.80381046
5.672899806
5.669157094
5.614588173
5.702880826
5.686112849
5.674182597
5.742071757
5.726323992
5.791487457
5.660573976
5.611314182
5.667261936
5.716906475
5.71140883
5.661653713
5.656749138
5.743392509
5.877279334
5.785509924
5.712034798
5.625661573
5.477686285
5.489406659
5.510477585
5.563407145
5.559227023
5.515692101
5.586163548
5.504609432
5.381481253
5.422225117
5.471816685
5.629479358
5.554153667
5.692516467
5.655449932
5.57456329
5.550549296
5.648145724
5.770895826
5.676013804
5.675025941
5.544319914
5.613365224
5.558721191
5.578115521
5.523334436
5.445587443
5.452222548
5.463146456
5.477028666
5.393425734
5.577969576
5.471050102
5.464420989
5.560280271
5.572641275
5.705351922
5.653254559
5.668324356
5.622779143
5.616791291
5.527119781
5.557155973
5.601698831
5.498994143
5.45708521
5.746348734
5.581165178
5.558829658
5.572704908
5.512880605
5.498007682
5.566036602
5.654811609
5.840632328
5.86412869
5.701338868
5.687316534
5.64184316
5.623456608
5.614693731
5.447810238
5.465403219
5.424596005
5.511787578
5.472824066
5.479128262
5.399219947
5.565020315
5.501962612
5.54506305
5.523591614
5.586228305
5.559625825
5.557452838
5.452367785
5.500999382
5.585100662
5.605065708
5.673210622
5.683708189
5.784358044
5.586219735
5.798246516
5.660734967
5.730585289
5.792189701
5.902009981
5.786001119
5.706712892
5.599441544
5.509477112
5.516366054
5.543196297
5.515317921
5.41058557
5.546658054
5.520564941
5.481634192
5.444789847
5.446730573
5.507239983
5.679278112
5.692960902
5.692798669
5.702480411
5.658928654
5.669600107
5.735339448
5.690259974
5.771177503
5.701228691
5.690278047
5.522407691
5.580063677
5.599710731
5.729453561
5.671632135
5.507360183
5.454963553
5.645482677
5.457818071
5.436554697
5.48930302
5.531987204
5.527402574
5.560182588
5.718628845
5.716468253
5.689163274
5.746120831
5.815586649
5.696680644
5.676317386
5.550983953
5.48471678
5.424938312
5.527419017
5.693046704
5.680355822
5.494785003
5.611738706
5.690019817
5.671333644
5.519176142
5.639600532
5.496217372
5.56822826
5.640025612
5.699428921
5.620146828
5.614257325
5.488935024
5.578401356
5.618285162
5.663275883
5.713985928
5.687618072
5.582445821
5.496293438
5.619438575
5.773986009
5.730343861
5.721251756
5.668330171
5.681845056
5.763291527
5.705158353
5.505427018
5.586291218
5.562643935
5.515938271
5.449030373
5.462708168
5.463196542
5.479640185
5.357670634
5.329347293
5.350512171
5.420144711
5.525267992
5.544302064
5.595197145
5.620577072
5.694259791
5.513501055
5.440281119
5.323110565
5.341541486
5.295125797
5.398711662
5.425924386
5.700715668
5.694989686
5.732259266
5.664971683
5.734916601
5.775384047
5.717446617
5.780858318
5.839523903
5.834211646
5.775359948
5.615605576
5.729636873
5.689579755
5.550673547
5.490236015
5.523917095
5.478134297
5.55873421
5.707499473
5.651600498
5.476307105
5.388995807
5.577421214
5.664901546
5.524050743
5.683561177
5.675791259
5.682272585
5.571799994
5.781153459
5.788292862
5.674424151
5.693154748
5.681040279
5.751131461
5.612631712
5.703842588
5.842345756
5.711342646
5.662002425
5.718111727
5.806736552
5.734063389
5.613886145
5.580895807
5.594109191
5.697960011
5.639262906
5.598679682
5.577986319
5.614906571
5.629994698
5.659240202
5.636181641
5.572093859
5.564214616
5.550125602
5.561599529
5.680370863
5.52063826
5.572245704
5.6535988
5.597408419
5.6238938
5.619212967
5.656750394
5.600993563
5.578461121
5.666486003
5.616487474
5.45368601
5.696450423
5.725477037
5.813284382
5.79234123
5.756730741
5.69779979
5.682023149
5.561138168
5.951990467
5.86769252
5.824105925
5.644200333
5.538024481
5.573735656
5.64547228
5.680992816
5.596479561
5.560020411
5.68192534
5.81341336
5.817475106
5.77349124
5.760515072
5.816587126
5.863467373
5.929030601
5.887439223
5.88830849
5.512459831
5.619681822
5.6964522
5.746590502
5.604314392
5.685557598
5.687783956
5.53014668
5.558760242
5.743814629
5.755420381
5.755305257
5.823045643
5.658004415
5.558837156
5.54849012
5.573354793
5.641548767
5.591962819
5.603993162
5.606224363
5.611927031
5.797953086
5.948713035
5.852299806
5.728246365
5.8717733
5.858468166
5.662676492
5.492890074
5.480625093
5.572712786
5.602589204
5.573364884
5.665714636
5.691796465
5.631214646
5.57891709
5.652200634
5.624527452
5.65140484
5.730235144
5.604862298
5.569677644
5.587527321
5.690551212
5.644487276
5.595455374
5.804452791
5.929046218
5.854676091
5.771560112
5.661786936
5.513115116
5.592632743
5.595028179
5.588852894
5.495606931
5.603735675
5.633888528
5.531664482
5.551154633
5.59803401
5.76434992
5.802590876
5.688264288
5.646287553
5.591026934
5.564060445
5.687925149
5.625566782
5.581350256
5.553677494
5.54008591
5.598322199
5.71914949
5.508576732
5.51937203
5.593466324
5.515329257
5.467510113
5.475582013
5.487210178
5.56951289
5.544974127
5.59331602
5.618058627
5.479221362
5.444789698
5.563406125
5.522388862
5.452680279
5.397586146
5.469942411
5.611586957
5.620470645
5.596102013
5.732394135
5.465464233
5.481724311
5.624030087
5.555223054
5.403996185
5.491583759
5.468640382
5.509306572
5.530421259
5.656725195
5.71915047
5.586216295
5.648876682
5.798781702
5.702006302
5.798931526
5.746153601
5.673091843
5.640958023
5.72041948
5.750703296
5.753293372
5.786056722
5.61925566
5.600166
5.573494806
5.613622271
5.585237631
5.6292136
5.581434002
5.50386718
5.525625448
5.562374183
5.748070262
5.7534274
5.663677658
5.677434926
5.645841792
5.527728467
5.668758215
5.686655655
5.686230611
5.688861363
5.786959461
5.893300669
5.823580278
5.77280592
5.678895732
5.663561265
5.621277137
5.524954442
5.583364104
5.535711741
5.468093702
5.402962004
5.522481297
5.520759302
5.59984573
5.717015341
5.704499865
5.595521287
5.575676
5.596194324
5.613463734
5.618765504
5.708679637
5.704718752
5.610764895
5.663150564
5.656179109
5.594610416
5.424759981
5.462987385
5.518583656
5.560686521
5.477039151
5.602515645
5.519978431
5.505529703
5.471427121
5.569693446
5.495681514
5.523961208
5.706488797
5.71967236
5.621175128
5.548109104
5.564255767
5.458488325
5.610544541
5.609844771
5.474338315
5.415614425
5.585337379
5.671532397
5.728621794
5.785972358
5.751919367
5.697241978
5.627075353
5.482085124
5.454856947
5.539593701
5.515904093
5.561981796
5.537327367
5.604706219
5.59454802
5.480028195
5.447813985
5.382729747
5.41225068
5.585179676
5.571570253
5.531498556
5.499844735
5.59270729
5.694256951
5.707698802
5.600526609
5.673524597
5.679854154
5.530104873
5.470168179
5.375514574
5.492356934
5.494773304
5.517518807
5.534602318
5.610185692
5.623843303
5.618440561
5.55097629
5.495984694
5.458026076
5.388076713
5.458150991
5.570995804
5.545765548
5.545740756
5.530067715
5.6363213
5.537756938
5.56813386
5.677195508
5.567548706
5.486477869
5.646352164
5.667978709
5.531401383
5.4328728
5.588918816
5.505452104
5.433205662
5.554047874
5.585885991
5.574666744
5.711469187
5.825644275
5.756748256
5.635090412
5.530470794
5.601672544
5.594899134
5.74383042
5.781328257
5.812967528
5.667041755
5.480096446
5.371408475
5.511438044
5.557248554
5.630778745
5.691012773
5.618450385
5.640898987
5.724583968
5.821480628
5.582841487
5.64947073
5.638025589
5.596788612
5.755568449
5.71071766
5.633557474
5.652709663
5.535532688
5.575412172
5.514401617
5.399146856
5.369554796
5.516594369
5.715501852
5.662251771
5.68792752
5.823847194
5.759300673
5.774623099
5.760017439
5.820213031
5.875172417
5.795345424
5.58611814
5.576402916
5.637950597
5.445710716
5.733632578
5.70496688
5.59918908
5.473825936
5.624040241
5.418020491
5.478270441
5.659875216
5.760903231
5.647586524
5.602406023
5.61602689
5.577430224
5.559394542
5.672757445
5.656689377
5.440818742
5.510032326
5.592109072
5.587715076
5.522020671
5.346869888
5.420517673
5.432697046
5.528079544
5.551853029
5.54627979
5.456089216
5.474791058
5.418344814
5.518211214
5.57841722
5.600479712
5.635508586
5.523414955
5.464925365
5.61848852
5.555103337
5.433138393
5.36900774
5.392511421
5.397242314
5.448389304
5.433627431
5.424115882
5.50444895
5.584997195
5.506634969
5.577554115
5.52036611
5.598543727
5.680084228
5.62792409
5.444647649
5.48481044
5.571454986
5.651609701
5.718329413
5.683442291
5.704905982
5.575747788
5.783055508
5.67117277
5.699297757
5.818584701
5.592067149
5.612820235
5.649474254
5.654929494
5.681854247
5.562593125
5.490486241
5.544607909
5.661514645
5.66484779
5.616180012
5.712916089
5.733228123
5.662376461
5.614402903
5.648660632
5.591756189
5.538298649
5.619916348
5.639786232
5.598531154
5.582240963
5.472342135
5.486723992
5.565845908
5.576500498
5.580602439
5.617085466
5.617699046
5.677998947
5.73089222
5.750218416
5.76935657
5.75888088
5.811370136
5.886439541
5.893949694
5.760710061
5.757303063
5.643630204
5.641926822
5.562252648
5.748925387
5.751480667
5.616244759
5.668153633
5.491057943
5.529516494
5.596434945
5.760348734
5.829822474
5.674576224
5.749207615
5.810510161
5.682955562
5.581879547
5.607249054
5.584488381
5.486056608
5.570367557
5.665249078
5.644326525
5.534747805
5.687176278
5.58845713
5.554933237
5.604213557
5.732029271
5.60996742
5.521269912
5.433823602
5.606270849
5.484660825
5.482977623
5.638754106
5.631123726
5.637219287
5.58767706
5.591964541
5.648386194
5.641705504
5.67630374
5.540749657
5.506126211
5.73871488
5.822172597
5.874122381
5.741382735
5.65643634
5.733996557
5.71545861
5.570479708
5.564869741
5.543941424
5.658468003
5.484174484
5.702064792
5.821803086
5.735921613
5.725855849
5.566317306
5.673223416
5.825250772
5.778115567
5.666654603
5.713997527
5.665497567
5.496981258
5.584953163
5.561324854
5.532388422
5.601931988
5.447135116
5.570010942
5.58778097
5.550895795
5.632537378
5.675725333
5.677036926
5.710828118
5.870272208
5.702856533
5.696471952
5.642358974
5.645252526
5.641501858
5.704286464
5.74097189
5.619493998
5.576608027
5.645798027
5.640037822
5.633656857
5.56166617
5.648756786
5.648975613
5.64589104
5.53871706
5.654660617
5.567832476
5.58310343
5.591272808
5.58063173
5.669342646
5.800276368
5.704010452
5.687600926
5.70688111
5.777902064
5.607982981
5.542200517
5.572337661
5.523600762
5.523822912
5.536580231
5.582732976
5.646288439
5.555061778
5.587164177
5.680172088
5.750182458
5.666674034
5.546143155
5.46406932
5.574226491
5.479870409
5.532307528
5.476660159
5.398174829
5.435993207
5.596988806
5.520121169
5.565137473
5.492704558
5.512123393
5.544638166
5.582846069
5.478760118
5.492434602
5.540707605
5.625898027
5.501420809
5.588433497
5.530791772
5.569227167
5.594598373
5.524955202
5.667605413
5.700306445
5.687546709
5.545870551
5.57881144
5.470993487
5.516520044
5.511773321
5.679807167
5.679025964
5.754791443
5.742168015
5.606476824
5.38049344
5.547227082
5.530063754
5.487556853
5.610894176
5.626634555
5.612955416
5.549122319
5.590672979
5.516387482
5.490059834
5.57600461
5.554829754
5.433818061
5.470717823
5.506551726
5.602412781
5.786016216
5.767443755
5.668912288
5.659961323
5.551233039
5.600014569
5.780526797
5.745907469
5.527195552
5.580886299
5.56578995
5.503128584
5.505390132
5.569018151
5.569485142
5.465690827
5.624047967
5.563502872
5.525393555
5.558625428
5.495656808
5.594543531
5.658088037
5.486813937
5.574150787
5.644654013
5.603428878
5.710516159
5.645459901
5.755069896
5.615092664
5.768167344
5.716514759
5.749003532
5.761296858
5.779180355
5.718595781
5.716495782
5.530777415
5.566351416
5.518155386
5.432816011
5.490739105
5.717279765
5.658711418
5.681217435
5.739494876
5.778790016
5.767621261
5.616913207
5.699780231
5.514864341
5.381951186
5.665272188
5.347964585
5.357388252
5.452788657
5.397632324
5.602528473
5.569898274
5.708819588
5.6808239
5.567871654
5.530937908
5.604086411
5.481501018
5.514776544
5.53850564
5.538205803
5.704949054
5.660307462
5.586400557
5.66940071
5.434488354
5.517195259
5.446043352
5.586330557
5.665907327
5.628936904
5.669373326
5.590865414
5.427093684
5.449424457
5.430473159
5.393739765
5.526584433
5.647242079
5.566368819
5.668630627
5.703073695
5.664224726
5.600929818
5.520316083
5.562977517
5.853004305
5.697764551
5.644289011
5.598097447
5.67503739
5.690058031
5.683135148
5.723086412
5.634841743
5.773838611
5.709605353
5.481616694
5.623753951
5.64551132
5.573797003
5.566748706
5.619631647
5.647452886
5.687303801
5.741738054
5.589347253
5.630548536
5.650039216
5.508483269
5.508316696
5.469598031
5.661091847
5.752543004
5.74744411
5.631314902
5.445926404
5.637663726
5.599928634
5.678985981
5.597036601
5.545762553
5.610127969
5.667972481
5.71522011
5.602612971
5.755053949
5.57932859
5.659913123
5.631722789
5.482361229
5.578452726
5.662363582
5.59161537
5.617197533
5.591510517
5.702871517
5.579114753
5.600236578
5.640960689
5.698674703
5.68422124
5.637312086
5.671711931
5.663490269
5.654774217
5.76016761
5.886006917
5.942378263
5.944580629
5.942134823
5.746897092
5.688269035
5.631022257
5.738227117
5.636265377
5.563544691
5.59628777
5.624179478
5.670508472
5.708466531
5.605549467
5.604967531
5.617129889
5.616368843
5.816189998
5.578929749
5.587696033
5.62128101
5.62208204
5.571667445
5.619623192
5.682715414
5.743438902
5.674441108
5.701229748
5.722376139
5.735983332
5.808518925
5.812375306
5.826135218
5.699985007
5.760294282
5.76295637
5.781054311
5.581486992
5.625714166
5.72881254
5.644866171
5.488029108
5.479324719
5.666213619
5.719186882
5.851699905
5.844983932
5.657476033
5.619163647
5.641582061
5.567953499
5.468390536
5.428592235
5.474705856
5.53424873
5.517979085
5.581350827
5.685509996
5.611554365
5.731375982
5.674591826
5.716731113
5.639877692
5.548766433
5.626615063
5.48901686
5.465056286
5.500885818
5.584949317
5.55880989
5.547047972
5.467280724
5.471868484
5.407513759
5.568820869
5.817207079
5.767289656
5.549012033
5.598945838
5.715322959
5.624806439
5.626043067
5.580191051
5.497441337
5.572373693
5.678259147
5.77116443
5.879706142
5.746278706
5.619840791
5.653104077
5.658335376
5.61248028
5.569077521
5.514887701
5.562731963
5.652649805
5.532438079
5.444788272
5.444452796
5.448516188
5.482194741
5.426328489
5.463002933
5.636350183
5.89720826
5.851215343
5.721555548
5.714879437
5.621830548
5.629122464
5.570408841
5.539658406
5.456496568
5.589164693
5.495958275
5.602580158
5.590552343
5.510826902
5.613115143
5.594084591
5.555627457
5.547936898
5.475883887
5.552183974
5.332759553
5.390201273
5.508742901
5.573394966
5.518112303
5.542845726
5.550182812
5.676033637
5.75733383
5.722864313
5.749230515
5.663619046
5.686147976
5.76200598
5.615158064
5.622053462
5.697099679
5.521291272
5.61659611
5.460873416
5.514773642
5.616836244
5.666533394
5.389423883
5.499163743
5.73684097
5.695523722
5.692128861
5.663052167
5.689046687
5.679706856
5.643357863
5.574916828
5.696671115
5.576119358
5.527783363
5.452378331
5.415025433
5.413839812
5.354763523
5.482327418
5.625026438
5.748477249
5.937019391
5.736994747
5.617454281
5.538324565
5.67913146
5.804516045
5.790196723
5.812466992
5.798577726
5.758744853
5.619825544
5.576814094
5.696969989
5.712601091
5.598124206
5.513247161
5.471346796
5.416133654
5.482882407
5.631406422
5.525964651
5.619122534
5.591148123
5.510670678
5.531628546
5.46779333
5.529291301
5.531085496
5.680769028
5.701398514
5.647610054
5.592385451
5.496495047
5.378512421
5.521367981
5.505887683
5.693078165
5.709998717
5.541012403
5.439581544
5.504297706
5.441979934
5.47209215
5.532713295
5.547944672
5.434796849
5.399345406
5.481166801
5.699981046
5.715630275
5.652844862
5.713995208
5.678785139
5.619698025
5.553857987
5.540731324
5.540807585
5.671986298
5.683281511
5.532061865
5.47332272
5.617538196
5.546683157
5.505431451
5.585068491
5.543649369
5.50844454
5.534169313
5.537539411
5.556851512
5.701409766
5.649891042
5.641138956
5.688416241
5.692738523
5.70819969
5.55398737
5.509198976
5.609435148
5.641859951
5.578382906
5.438229218
5.45418842
5.544984253
5.643324384
5.688379115
5.632749218
5.547305204
5.442857665
5.551186443
5.526331542
5.542057675
5.524077218
5.6189143
5.546784739
5.634557545
5.546382444
5.657335234
5.556305077
5.51274986
5.533122704
5.740901671
5.661206382
5.65072172
5.552611873
5.589557467
5.647782544
5.517869163
5.475187673
5.541450561
5.698306406
5.56145604
5.616866641
5.683131889
5.736441235
5.779199402
5.652150673
5.60338196
5.632836926
5.596556864
5.720666098
5.695206831
5.746257202
5.67564214
5.631028609
5.634950777
5.621114115
5.766011638
5.752329795
5.782133004
5.739751227
5.695745212
5.572700252
5.739316337
5.683901373
5.702292806
5.710752392
5.674709995
5.655677302
5.573509699
5.660233289
5.74438249
5.640218358
5.485424996
5.497060595
5.620731927
5.67226546
5.659048561
5.634261095
5.745872674
5.681119628
5.667785019
5.674712493
5.547326323
5.468791522
5.577260328
5.565508267
5.623219327
5.552046277
5.671824412
5.570124728
5.585191229
5.496301311
5.428082156
5.565143347
5.58219855
5.320280681
5.491691693
5.478428527
5.55009974
5.724271053
5.689292626
5.572605047
5.536675692
5.61075369
5.669194338
5.70953868
5.602259059
5.547044372
5.599553952
5.670755719
5.692805486
5.811190831
5.739623528
5.580288717
5.625687841
5.575068991
5.489807155
5.578565426
5.630579172
5.458780505
5.511671591
5.648193968
5.656298294
5.652726793
5.556863105
5.603237096
5.634397446
5.699205551
5.648538139
5.658774179
5.584890831
5.500784356
5.621581502
5.721000137
5.672344228
5.652196124
5.526290994
5.71370313
5.642348087
5.600283543
5.536877292
5.596350718
5.706743283
5.658143691
5.71672906
5.56664068
5.603022837
5.640729746
5.707799683
5.705302473
5.669751262
5.597530368
5.584794713
5.533870762
5.586001943
5.501149918
5.533953411
5.443138236
5.495002658
5.674288657
5.64410536
5.555778022
5.405670593
5.520356939
5.318791728
5.40198189
5.445769101
5.465668881
5.565172336
5.538720139
5.626792939
5.689040714
5.682940645
5.697136953
5.731663365
5.536198979
5.416916311
5.51615891
5.590868525
5.787727194
5.587589289
5.604406298
5.554385935
5.499678204
5.685515929
5.820090972
5.676307825
5.730692152
5.728659507
5.621615247
5.667543066
5.68871761
5.656141082
5.675326772
5.657554401
5.656833268
5.717346673
5.757807476
5.747268682
5.425742345
5.516551674
5.550971756
5.616640247
5.710733167
5.521369175
5.529517764
5.626447495
5.69681369
5.664783007
5.587408917
5.655816713
5.699004743
5.768896844
5.699685295
5.693812731
5.63559769
5.661047781
5.471124519
5.382060024
5.540750054
5.544534909
5.57882307
5.62453131
5.631653642
5.679410392
5.800400842
5.75524026
5.664065078
5.566691712
5.658825228
5.800974809
5.838518898
5.769985109
5.727631402
5.646532489
5.497156025
5.435211046
5.476525936
5.650739956
5.451286163
5.58448823
5.772986638
5.770841026
5.759593974
5.76464492
5.819777987
5.736165111
5.768065075
5.630655222
5.494996578
5.530578696
5.522098463
5.633149326
5.665052848
5.678418274
5.622171948
5.622324993
5.665750462
5.514895216
5.594264968
5.662967257
5.661583899
5.632904322
5.60875346
5.532833482
5.539656111
5.600038096
5.620825076
5.537362447
5.580509508
5.744983636
5.788723899
5.859949634
5.668330065
5.664430236
5.66387412
5.64576289
5.658489605
5.666122312
5.67199077
5.728952201
5.723127067
5.7773177
5.63783476
5.585230117
5.593227187
5.653276136
5.623804993
5.647719731
5.601969433
5.633856218
5.547865984
5.333641508
5.406992985
5.421401338
5.535852971
5.693405739
5.473229857
5.616603828
5.492252384
5.538577703
5.584114836
5.715153091
5.64677864
5.588482142
5.535423511
5.563917682
5.781687384
5.867079977
5.741013631
5.554229728
5.515603458
5.653422729
5.585906641
5.516763876
5.45929561
5.386024808
5.467170389
5.579126333
5.705047855
5.819540729
5.674610986
5.667803519
5.660066093
5.767101108
5.770308374
5.745289335
5.782022788
5.78236947
5.822203891
5.683957456
5.703180584
5.678172079
5.663040796
5.583398292
5.594294907
5.561203381
5.585946826
5.488049153
5.685560801
5.639798605
5.756225716
5.669066856
5.710001263
5.617925378
5.811428848
5.789079336
5.696435495
5.578697414
5.56128901
5.548240299
5.619240603
5.792859785
5.93059393
5.864092281
5.947728688
5.99924595
5.774451568
5.653281741
5.712662295
5.777895347
5.652531476
5.61264168
5.436527015
5.537742958
5.467523861
5.461281916
5.495377962
5.572738182
5.673011078
5.749335936
5.715756639
5.606805812
5.583490907
5.632005916
5.632151898
5.519890976
5.486183996
5.589007421
5.50242774
5.636847468
5.592628062
5.518932249
5.617940094
5.702470817
5.652309308
5.611809694
5.56998391
5.631783885
5.42886447
5.493563638
5.622435327
5.736853936
5.585742094
5.563294368
5.724473231
5.889884282
5.882365615
5.823399899
5.558666685
5.596325513
5.590258019
5.765881332
5.563846048
5.543208946
5.546071716
5.572308393
5.573591434
5.582576736
5.555392939
5.58165097
5.538564744
5.412237751
5.553610228
5.664200865
5.65061567
5.697195361
5.695566613
5.617848476
5.467484336
5.478979376
5.547940903
5.675458913
5.667235013
5.674097629
5.503267376
5.500256518
5.478805499
5.505728337
5.588650823
5.638579926
5.750685329
5.716003733
5.621178109
5.577287272
5.635036428
5.686415095
5.628987465
5.578692895
5.378107316
5.425542494
5.493264009
5.494803149
5.653801461
5.685074682
5.643004425
5.560235599
5.4115483
5.547805751
5.458153521
5.452010529
5.382004865
5.374686149
5.459695546
5.688248857
5.518506635
5.411573859
5.282224543
5.377950065
5.518726194
5.481988418
5.536426927
5.598339155
5.514012169
5.392200219
5.436373999
5.400236983
5.138860827
5.126431754
5.243870025
5.331125669
5.499547699
5.367086946
5.462751613
5.424473609
5.498926248
5.627788553
5.493537411
5.448319333
5.620172129
5.531226001
5.463257328
5.450177736
5.575149074
5.68090056
5.675461617
5.526674282
5.605419383
5.627606369
5.651245004
5.596651317
5.639468703
5.666403457
5.532526689
5.401456985
5.454141147
5.578041082
5.587846436
5.684908067
5.529773055
5.638227558
5.606712603
5.726996524
5.658294899
5.646395237
5.743564087
5.707900724
5.55906107
5.578826787
5.548825668
5.61402021
5.525360415
5.329269289
5.341069579
5.554817072
5.585574295
5.490371884
5.305362281
5.456075489
5.590182859
5.471012884
5.414338197
5.43883969
5.479967958
5.634419213
5.677306103
5.70190274
5.719527985
5.782981622
5.695832189
5.70105802
5.543119236
5.504696814
5.485510284
5.388241752
5.45779331
5.449728173
5.540807741
5.658984564
5.58222387
5.639209877
5.563770584
5.416535398
5.639996194
5.721599467
5.711806311
5.724214439
5.68648346
5.662807338
5.657793546
5.637685146
5.595535267
5.448464496
5.457547401
5.475015535
5.497126968
5.712514291
5.544831763
5.516354907
5.702156611
5.725268906
5.56447662
5.779457324
5.752398603
5.756420118
5.673602302
5.69518522
5.752890618
5.829822892
5.715573154
5.687158261
5.719359233
5.684863793
5.670152802
5.721956805
5.632257462
5.56573973
5.474402786
5.666484232
5.521934993
5.655862707
5.745862029
5.778025174
5.852650381
5.766972468
5.990674963
5.903111941
5.87222002
5.858087697
5.977842514
5.873100879
5.847111856
5.656559406
5.576851439
5.643483592
5.637760947
5.567542563
5.599710133
5.573082303
5.656556691
5.521702776
5.564221865
5.524672032
5.729472319
5.764397303
5.741043171
5.777139569
5.61485688
5.618800712
5.669770198
5.662667611
5.66259478
5.62588195
5.678861685
5.700106078
5.614523459
5.732755035
5.818242432
5.86160224
5.507454376
5.617878752
5.716905009
5.720002473
5.546974655
5.571025213
5.609795502
5.709431036
5.734055154
5.700427266
5.594369348
5.605391258
5.611378209
5.778577206
5.609319278
5.637372026
5.738572386
5.601039177
5.648834441
5.546642599
5.817006661
5.690077349
5.663675204
5.739465964
5.792997028
5.723194779
5.639163026
5.656891179
5.690467209
5.84836514
5.84963058
5.872153899
5.758162101
5.622635317
5.60410743
5.620819781
5.572783947
5.578760596
5.683741977
5.755619656
5.647810345
5.551222569
5.569844085
5.714754227
5.680330805
5.708503671
5.598260784
5.737317176
5.735774748
5.593793287
5.544559704
5.609232959
5.619275348
5.618728657
5.594094375
5.545776346
5.675094352
5.701741925
5.786124714
5.751334906
5.53703041
5.541592007
5.602505272
5.699335316
5.663135053
5.505019173
5.51863404
5.461056853
5.361560784
5.344488265