/*--------------------------------*- C++ -*----------------------------------*\
| =========                 |                                                 |
| \\      /  F ield         | OpenFOAM: The Open Source CFD Toolbox           |
|  \\    /   O peration     | Version:  2.4.0-MNF                             |
|   \\  /    A nd           | Web:      www.OpenFOAM.org                      |
|    \\/     M anipulation  |                                                 |
\*---------------------------------------------------------------------------*/
FoamFile
{
    version     2.0;
    format      ascii;
    class       volScalarField;
    location    "0.0009";
    object      Ma_N2;
}
// * * * * * * * * * * * * * * * * * * * * * * * * * * * * * * * * * * * * * //

dimensions      [0 0 0 0 0 0 0];

internalField   nonuniform List<scalar> 
5120
(
5.397699642
5.580561144
5.668111736
5.777313295
5.543053171
5.531249283
5.54513529
5.536539305
5.589478281
5.50549922
5.581483678
5.612479598
5.553485103
5.473993907
5.427562941
5.53716871
5.652581441
5.622412958
5.556164333
5.444709235
5.527319079
5.470456152
5.437111143
5.480076181
5.556230726
5.578084093
5.606456483
5.463223757
5.319354815
5.379318288
5.427170682
5.556174991
5.567565062
5.603381811
5.602862927
5.549887294
5.607442144
5.550155127
5.46132472
5.427246872
5.414250397
5.431582821
5.457562858
5.510431987
5.569678004
5.532527777
5.468443499
5.480655444
5.547983245
5.61962055
5.604708845
5.619089232
5.656891461
5.646913391
5.515634231
5.400398235
5.416313038
5.441578842
5.597759407
5.351141417
5.603378583
5.439686179
5.406134675
5.514832602
5.596481863
5.600941355
5.401918936
5.51825911
5.658845762
5.530635636
5.538111012
5.584248564
5.541252741
5.480101276
5.509084871
5.477518807
5.425225192
5.478884516
5.439190757
5.649233166
5.360834343
5.411613147
5.645086189
5.513807443
5.594040263
5.563124305
5.53412796
5.358885558
5.37776943
5.550135852
5.551058412
5.632159684
5.561205873
5.595829728
5.578722482
5.568390998
5.414440749
5.413644594
5.536465078
5.401562153
5.674712593
5.710015402
5.558521442
5.490808419
5.592722347
5.504100887
5.461978923
5.354436242
5.304826802
5.309091054
5.50486662
5.557681569
5.641312397
5.59124625
5.589263749
5.602390433
5.656304331
5.732816181
5.605894342
5.630960854
5.531036856
5.658288372
5.498949281
5.334167861
5.368497643
5.500640168
5.645909376
5.658456666
5.690597205
5.706024316
5.617726247
5.511067969
5.504311407
5.553931951
5.688251597
5.766503039
5.652889876
5.688249123
5.676643631
5.614294918
5.583136781
5.512626319
5.478213542
5.601357623
5.644581266
5.620450174
5.398914924
5.61816872
5.740951501
5.640596836
5.595594881
5.594856563
5.609004624
5.593462194
5.616190718
5.458183532
5.53135163
5.613940515
5.674512617
5.548984414
5.512342709
5.575410275
5.623832622
5.56460123
5.584469444
5.578139315
5.562493941
5.632205673
5.518912966
5.526505427
5.649809183
5.600752259
5.628311224
5.578173367
5.614628261
5.586530484
5.622726336
5.622257141
5.585662444
5.467140486
5.532279541
5.640155911
5.553035415
5.536714016
5.640099264
5.630283545
5.563014324
5.508161852
5.477723015
5.370344196
5.356030271
5.473216502
5.496051331
5.387870265
5.364075664
5.353717735
5.475543203
5.452240264
5.297441536
5.402987026
5.57698673
5.486263922
5.580818376
5.550107558
5.421775648
5.36641929
5.373830929
5.395126884
5.36097991
5.286439568
5.306308312
5.376461694
5.464330998
5.605971579
5.447166573
5.63707958
5.637822107
5.504009206
5.44961551
5.327651501
5.327515131
5.463269247
5.506735527
5.381275543
5.400707985
5.491574864
5.496367153
5.4912772
5.673313761
5.567150807
5.509305885
5.399334279
5.300460456
5.542829309
5.446507238
5.559993229
5.618173163
5.500334844
5.524853055
5.326841521
5.449393956
5.441371258
5.491756759
5.484380288
5.442371387
5.378536701
5.585650598
5.648963555
5.654025117
5.535624104
5.504327284
5.463494937
5.540948546
5.420171464
5.357684503
5.4737018
5.532508002
5.540615626
5.452235582
5.451555809
5.633252712
5.610757112
5.636260293
5.629236581
5.450053819
5.388917504
5.331412596
5.432460026
5.500847162
5.570090751
5.502357341
5.677850673
5.520464619
5.513617999
5.517060752
5.516352153
5.73323465
5.782089199
5.63531393
5.577422155
5.702966336
5.798721512
5.623628582
5.656644006
5.473873677
5.51361998
5.665015378
5.520015944
5.414428533
5.495172841
5.435555396
5.444514114
5.44934
5.41280828
5.492014696
5.403101061
5.38268866
5.551829186
5.658699907
5.712687157
5.463271533
5.500232328
5.487104326
5.546541027
5.611530966
5.485599764
5.455546925
5.314165493
5.287824992
5.433821154
5.317687506
5.332733502
5.42030859
5.457969042
5.34506196
5.521617114
5.554721772
5.756617242
5.614171863
5.492184009
5.470283716
5.538771751
5.430738456
5.428058868
5.466824935
5.61150059
5.729793941
5.69252186
5.609793824
5.619084749
5.688198262
5.601138026
5.667632516
5.672074274
5.6329451
5.53373277
5.428979686
5.413306033
5.449766724
5.391395766
5.509793248
5.31424972
5.333744796
5.389638226
5.36614662
5.391142715
5.435276939
5.471923596
5.476683027
5.280585501
5.364543913
5.477844522
5.508069649
5.495596647
5.510961658
5.552105983
5.380984464
5.38017296
5.41734865
5.594636893
5.621683416
5.77707835
5.980583497
5.692711833
5.682382419
5.6844882
5.681773998
5.51092857
5.443234189
5.500214737
5.495958873
5.409590219
5.298721213
5.378195235
5.351636163
5.501853444
5.606495337
5.560251786
5.605512688
5.561314889
5.534199292
5.438502694
5.394137345
5.41875089
5.414356556
5.407076872
5.51113748
5.583412681
5.472218821
5.494405335
5.44133274
5.514040035
5.474646032
5.32394524
5.361473496
5.424847775
5.550754472
5.644015905
5.544405912
5.49519083
5.581831987
5.588867856
5.552473785
5.39647574
5.386735377
5.366782478
5.552429461
5.593286721
5.577847983
5.548612075
5.61372586
5.293544548
5.36072643
5.407632394
5.480333564
5.523958402
5.598701576
5.591236999
5.519039874
5.46926993
5.257403031
5.243307059
5.222660743
5.503094319
5.465053241
5.46722631
5.336985102
5.497107825
5.722392616
5.830978675
5.666958906
5.660228425
5.437032081
5.425410068
5.436562017
5.460745742
5.482540928
5.393022505
5.324026164
5.273979944
5.639698946
5.625375301
5.774536795
5.568986419
5.594137891
5.6085613
5.572119851
5.650306368
5.607130258
5.63776017
5.652714272
5.501345059
5.580694617
5.57679974
5.66637171
5.679404177
5.71128996
5.64553573
5.504567081
5.533005082
5.606733216
5.623137835
5.64215021
5.480242002
5.61349286
5.648940085
5.794876565
5.639675312
5.572852286
5.531932525
5.656715186
5.671124559
5.649571229
5.612239209
5.590191712
5.64915113
5.554218823
5.453986864
5.546679986
5.609058759
5.68235213
5.632902187
5.628785364
5.664037874
5.796767753
5.716067863
5.573974513
5.61534896
5.452166036
5.493041066
5.582337185
5.490086037
5.524391882
5.570010175
5.5442155
5.441479337
5.28560237
5.372176328
5.514890141
5.709319498
5.386689088
5.510456696
5.4757587
5.461759327
5.43878994
5.628220048
5.794795803
5.668642556
5.665579418
5.56014454
5.616341845
5.562981027
5.562468135
5.535867144
5.423334942
5.460494071
5.513737724
5.508448968
5.354491959
5.444182804
5.324838901
5.30427771
5.442105774
5.521332992
5.70430705
5.638469204
5.715436692
5.596673334
5.51444442
5.391564948
5.453198619
5.53687594
5.517312332
5.44165069
5.656764167
5.378928863
5.375969444
5.458577767
5.409114648
5.36861851
5.45603641
5.555594911
5.661648377
5.731200429
5.557343847
5.566721169
5.523349241
5.476372171
5.55502766
5.378196844
5.320448132
5.280564674
5.400619972
5.337486353
5.382613904
5.338217306
5.491844436
5.384760112
5.426844764
5.392348006
5.543781773
5.384508606
5.455728559
5.366325165
5.37482743
5.454020202
5.47802506
5.525352034
5.542983704
5.703944783
5.576772688
5.701549003
5.494051533
5.573446071
5.608072565
5.696730617
5.583324286
5.525496
5.42514975
5.388558501
5.54748806
5.538162864
5.532659916
5.346684083
5.528663959
5.553271304
5.515474056
5.496438286
5.413207068
5.436624556
5.602754916
5.644927744
5.685408863
5.694508552
5.701671784
5.622802323
5.627560518
5.585619501
5.783121744
5.728085935
5.610176874
5.457571651
5.446410898
5.423182332
5.604706019
5.585512463
5.364886624
5.313696608
5.574390307
5.430094566
5.387444483
5.432903044
5.45589656
5.431425225
5.342534215
5.582528391
5.574492081
5.587971968
5.609552332
5.673463114
5.478107926
5.539043401
5.487573853
5.365832719
5.362371
5.468340142
5.691975596
5.664484288
5.422937215
5.440433915
5.540953888
5.549006124
5.373507243
5.410549699
5.322171948
5.360316271
5.450380693
5.43250404
5.340709341
5.411349777
5.358583819
5.516489357
5.506902918
5.567197215
5.655627805
5.594854463
5.490733205
5.458252254
5.620573642
5.696024634
5.571558338
5.577926842
5.498355006
5.462487913
5.577623778
5.473064557
5.355874417
5.385858431
5.425019198
5.339232583
5.345834817
5.339695019
5.383583051
5.354537998
5.219950222
5.184376496
5.224947755
5.386910962
5.495123059
5.515391611
5.568116309
5.591517489
5.630855955
5.414152467
5.275562669
5.180197172
5.214363426
5.185828824
5.244080289
5.295640609
5.559481305
5.572432244
5.637865937
5.609204243
5.640103135
5.718346145
5.605093681
5.582006908
5.678576686
5.675710192
5.648685488
5.49404912
5.581446067
5.596636806
5.402260661
5.316484718
5.342617711
5.354582888
5.455846818
5.627521227
5.5202282
5.354146868
5.299388573
5.490976202
5.574113208
5.432721973
5.52193834
5.46556567
5.504619328
5.403140213
5.574520079
5.606759957
5.537150994
5.518997437
5.518225373
5.699757271
5.612004665
5.602266891
5.808814596
5.613134124
5.600079806
5.676161841
5.719656273
5.615614689
5.557413204
5.382871807
5.438927007
5.57353988
5.364059013
5.324596622
5.407549926
5.477942697
5.454126567
5.496330353
5.509949298
5.446763667
5.392804133
5.429345988
5.500701412
5.62728941
5.376610531
5.439039425
5.579016172
5.516727519
5.507665909
5.527650856
5.579472863
5.516328285
5.548104302
5.588177548
5.595521761
5.334247291
5.628679929
5.701680459
5.719039189
5.639558247
5.563998859
5.477927342
5.502689579
5.396345074
5.926754841
5.790744966
5.68288767
5.514089718
5.39333685
5.414389869
5.539112377
5.661855763
5.538920881
5.477049561
5.574336598
5.766061697
5.7551375
5.695793142
5.741321669
5.761756266
5.773151252
5.821434392
5.817327082
5.905867203
5.357860038
5.492718816
5.680315367
5.630989111
5.468683259
5.580776411
5.626097644
5.426742517
5.518516744
5.721789085
5.827679333
5.758807878
5.833856593
5.584796519
5.403012448
5.434847989
5.509236548
5.622214984
5.529550606
5.487282426
5.562827017
5.450875638
5.63395236
5.81171211
5.783361442
5.578292248
5.691921425
5.657104671
5.500956038
5.307697715
5.278399281
5.440137984
5.445082529
5.414160543
5.54047761
5.645331622
5.594936085
5.510540418
5.520133778
5.582662469
5.516774836
5.622197101
5.526407547
5.469065581
5.453034808
5.569772378
5.53227885
5.468334653
5.692624814
5.844324513
5.747538205
5.696157149
5.590776606
5.485038626
5.614796191
5.53668651
5.553271022
5.415209989
5.501501511
5.537860398
5.421350787
5.445118873
5.468011299
5.601616762
5.617269228
5.536734007
5.519010241
5.474754148
5.405043352
5.562260972
5.481537497
5.44426835
5.360111958
5.340264727
5.464928378
5.633715502
5.380900371
5.409021293
5.483865895
5.356937867
5.410551527
5.43326854
5.486795277
5.514151461
5.549101571
5.555080159
5.540612973
5.378065534
5.339520308
5.467503724
5.44595579
5.342609631
5.276693611
5.367303263
5.516919976
5.541676755
5.451648904
5.557767176
5.366206152
5.426269827
5.519472993
5.455532023
5.352073725
5.427629521
5.366417689
5.425027413
5.442361404
5.541340363
5.639307357
5.552129672
5.592058456
5.767146485
5.593570313
5.658351489
5.722888755
5.608743756
5.617980242
5.704949306
5.757531044
5.664616781
5.661855242
5.610006333
5.550790698
5.500860101
5.525459637
5.49247437
5.579975029
5.545210176
5.360370269
5.357519476
5.403787909
5.646386703
5.743068119
5.592502126
5.518603237
5.490873343
5.433266181
5.661753866
5.568295571
5.584982073
5.664002233
5.775739049
5.911355326
5.862134519
5.768310608
5.641838217
5.560972694
5.506498968
5.457242187
5.549451609
5.5160132
5.461349992
5.335828287
5.449459685
5.472615788
5.522612183
5.635510618
5.587154796
5.548380227
5.61240293
5.475859596
5.498062432
5.529744
5.598903827
5.629598031
5.456609949
5.528402158
5.523938243
5.497433104
5.401060554
5.476513517
5.449772179
5.46575416
5.372831769
5.572114422
5.497217017
5.477490878
5.504506387
5.533465317
5.390714718
5.478347899
5.659709219
5.63685868
5.578701018
5.508768629
5.514634253
5.276538877
5.455965921
5.465218211
5.383555999
5.383604873
5.554453874
5.51586843
5.598520588
5.651565087
5.643634009
5.592536623
5.540937006
5.43577938
5.359693611
5.439562933
5.39200179
5.417957658
5.46636348
5.518923834
5.479154727
5.39950834
5.40505699
5.326116331
5.348845746
5.529729128
5.485271035
5.453212958
5.379565154
5.498551713
5.571745481
5.571350816
5.425786758
5.505728972
5.57056444
5.563648516
5.418773614
5.347096536
5.431544174
5.415237322
5.407735195
5.385466028
5.461566835
5.517236906
5.481620486
5.415729243
5.414482961
5.408638641
5.240702379
5.328403001
5.518064883
5.435462001
5.465347445
5.520533972
5.66434836
5.391748718
5.43852457
5.518199588
5.556033474
5.495492236
5.593907208
5.614180742
5.452788428
5.361454958
5.506403582
5.394068549
5.250430372
5.404210274
5.49044224
5.536439371
5.709382645
5.832669426
5.742399888
5.478854112
5.389849351
5.588992071
5.535711675
5.66088538
5.674236305
5.687381448
5.604710252
5.382194413
5.29454037
5.503968147
5.497906241
5.609492048
5.687610719
5.603861135
5.613161624
5.700864655
5.729083935
5.480798942
5.552838506
5.612133752
5.59789558
5.700608608
5.635383391
5.542651497
5.519041619
5.49602679
5.555933162
5.575130919
5.430273358
5.381167574
5.59727265
5.812851149
5.72270425
5.734159786
5.841276526
5.740486133
5.808702124
5.800395245
5.885035267
5.825626864
5.764553721
5.550071753
5.514895164
5.62111791
5.372204438
5.653713344
5.659779289
5.479018793
5.338171919
5.575738775
5.39024978
5.447633667
5.669153305
5.648728417
5.537768579
5.50694182
5.52313868
5.588957663
5.569460016
5.683118427
5.61489552
5.364263272
5.445863263
5.443980659
5.440986907
5.424733817
5.270202484
5.339095628
5.343226199
5.402416995
5.468006366
5.463567787
5.421647556
5.484724024
5.361376457
5.517927946
5.520995425
5.559820435
5.555891714
5.507589095
5.447383883
5.490482854
5.411327579
5.291838566
5.266524459
5.28752857
5.31655768
5.378547284
5.331966657
5.237098547
5.338066886
5.460678116
5.377035001
5.502385826
5.519075606
5.600506025
5.679514292
5.629350296
5.371639863
5.410892648
5.433712169
5.646875767
5.696065142
5.594696934
5.662897982
5.581324499
5.79399055
5.617367992
5.628266844
5.731155563
5.492149509
5.518733301
5.545722422
5.613124056
5.618527036
5.468906776
5.371279863
5.449321059
5.629942822
5.668573813
5.615717969
5.567513787
5.62943868
5.540188681
5.471065893
5.456857403
5.389641727
5.358139476
5.480164875
5.567467072
5.559646442
5.525210388
5.418450973
5.433345447
5.549175888
5.51217438
5.547210976
5.570691055
5.556588054
5.622346468
5.662562162
5.714446604
5.657673222
5.615354599
5.627065482
5.672370631
5.688731302
5.617548289
5.665690517
5.543575141
5.465718328
5.376949683
5.61026047
5.655011536
5.517508771
5.529735648
5.302810493
5.339170114
5.415901636
5.540147433
5.739712974
5.642101168
5.778718517
5.758356467
5.552993795
5.480803776
5.532003988
5.526778918
5.400320444
5.454335782
5.492511437
5.511082707
5.379452105
5.581619458
5.545565768
5.512862751
5.607332383
5.700348205
5.552537275
5.515557322
5.415887276
5.541099764
5.476944596
5.479132845
5.626162127
5.554964008
5.600421173
5.590947784
5.541090486
5.718712565
5.650780995
5.572431978
5.424311407
5.339870427
5.548509996
5.6244426
5.709575816
5.617377115
5.587366981
5.594178115
5.565708277
5.571080809
5.519720536
5.416445561
5.554599158
5.423333666
5.635741281
5.773429539
5.64881853
5.630790463
5.434786162
5.55127201
5.741666947
5.687931072
5.558258862
5.620367708
5.600572984
5.39426298
5.440573983
5.452727235
5.452356149
5.471851413
5.293687365
5.459457258
5.544293892
5.484673332
5.656663922
5.71665723
5.75824892
5.731553166
5.838059189
5.640227022
5.654997669
5.656870507
5.593441246
5.591640448
5.603154344
5.688083993
5.536096442
5.489527166
5.525068588
5.58471947
5.539812929
5.51822852
5.567113378
5.58341562
5.552728313
5.416236104
5.575717405
5.466727158
5.420316247
5.42095301
5.4718854
5.578247452
5.66296096
5.53578604
5.626838379
5.705534131
5.742534879
5.529245121
5.49123606
5.482159186
5.495192562
5.458136788
5.459883324
5.437530568
5.533992181
5.406701934
5.442090627
5.57849264
5.65348353
5.532515257
5.443356855
5.455514326
5.575350923
5.455864319
5.477167049
5.369038607
5.3789549
5.485224619
5.530630416
5.428160289
5.504106138
5.402796844
5.414585124
5.500062888
5.503071666
5.431612958
5.406626559
5.395713272
5.471507639
5.363625858
5.471044971
5.374016546
5.475455377
5.475982696
5.351238108
5.548556141
5.601180566
5.655302938
5.511302641
5.581012228
5.369643881
5.400910882
5.378341557
5.602347029
5.639184472
5.683120358
5.699186127
5.550295721
5.291512288
5.52153143
5.483419482
5.446883634
5.56523998
5.635927521
5.57935811
5.447681493
5.486559776
5.445691634
5.434916169
5.543540604
5.564865801
5.420034046
5.462986148
5.431499178
5.534280685
5.69660461
5.677227526
5.569186074
5.487446583
5.368643644
5.411273395
5.647761661
5.630631716
5.474175291
5.602509074
5.617199315
5.43474214
5.432087859
5.506758853
5.503444852
5.431119689
5.593934208
5.510977611
5.484731909
5.45244434
5.364766355
5.534480262
5.575802007
5.443174722
5.511471477
5.570672621
5.570701539
5.718168952
5.601895788
5.636269214
5.504573098
5.694704397
5.679476692
5.694811369
5.560577125
5.607885838
5.595004515
5.675310596
5.466764239
5.48044708
5.425618868
5.346279342
5.453786074
5.678085694
5.639820765
5.677532354
5.711705808
5.678856216
5.642039478
5.559491298
5.634973707
5.402599777
5.211833392
5.538441698
5.27787051
5.285622687
5.402725407
5.304334075
5.520260894
5.489511532
5.657951709
5.684071807
5.544460173
5.466269568
5.504796876
5.371194226
5.414183088
5.525496021
5.512643558
5.59414696
5.552242088
5.471694364
5.598586781
5.33751568
5.316197865
5.298883767
5.449847073
5.567056165
5.482549445
5.510476844
5.474722887
5.273847661
5.341174989
5.322628433
5.295399445
5.419408751
5.494817377
5.469640766
5.599978747
5.579249964
5.500877731
5.468848856
5.326519034
5.336959869
5.690485068
5.575880802
5.572668313
5.544672987
5.545872327
5.50752234
5.525720605
5.5880991
5.474943581
5.593863678
5.570027681
5.384538406
5.53482332
5.532600735
5.425413646
5.484652014
5.512261877
5.452383997
5.493315023
5.54786758
5.478706701
5.525123989
5.490354687
5.340240228
5.431496478
5.3222215
5.519032719
5.591498437
5.588853371
5.495493819
5.395185684
5.558354412
5.476762068
5.569033363
5.49227683
5.447010132
5.569575707
5.608974717
5.577317458
5.47925997
5.687757566
5.515936012
5.594464941
5.625201579
5.50349108
5.504699381
5.505498863
5.408551533
5.463018468
5.547769366
5.639693238
5.544031709
5.546191557
5.581512358
5.555516371
5.570707206
5.506001184
5.590354331
5.681454432
5.661294033
5.710516404
5.865452445
5.959766954
5.919692213
5.921130827
5.656487848
5.639275336
5.520468038
5.744854362
5.603566152
5.538772548
5.565449124
5.68377443
5.634075581
5.68883095
5.539776615
5.637528337
5.675362529
5.627435176
5.804707747
5.652733833
5.585590866
5.641856068
5.618206913
5.466255076
5.597590382
5.672442377
5.675472555
5.604067589
5.62968688
5.63575465
5.686103277
5.728947455
5.672959334
5.702093933
5.651102354
5.653550188
5.669141172
5.740255346
5.613111718
5.516676376
5.680939728
5.518973108
5.431537092
5.475097457
5.548756664
5.539353565
5.669227246
5.692821183
5.611514318
5.54333055
5.562989049
5.499914781
5.44374511
5.461357621
5.49339834
5.518202243
5.474194608
5.581181176
5.694890286
5.593568997
5.738607371
5.754752515
5.740422319
5.594296691
5.459957213
5.591734969
5.447794139
5.413650442
5.462696885
5.551873203
5.490324535
5.514180077
5.449025482
5.369066484
5.284620126
5.428081935
5.708521707
5.698204239
5.495803631
5.543151047
5.670919536
5.508036856
5.504370875
5.550396695
5.433005007
5.457264347
5.586841605
5.664954297
5.823107778
5.66687739
5.527280173
5.627606516
5.700873329
5.600504289
5.574869306
5.517406659
5.510439439
5.667733314
5.536951254
5.389781975
5.345995156
5.307421965
5.383562964
5.321248389
5.350307396
5.544114796
5.807357063
5.685655531
5.574467514
5.608266619
5.511434954
5.509379486
5.480558558
5.460363105
5.419397061
5.559701378
5.471776906
5.552796401
5.512471179
5.470628097
5.529679507
5.598488562
5.585018141
5.54745551
5.469703522
5.483302575
5.213593404
5.280236389
5.402539508
5.464230066
5.437724093
5.524425743
5.3892959
5.525345224
5.64658372
5.665339482
5.683546284
5.61065517
5.686200264
5.62727159
5.509578331
5.458157437
5.579526397
5.477075382
5.540727666
5.378752756
5.34446844
5.427401896
5.44979493
5.237837513
5.401478803
5.658017945
5.679506745
5.638190048
5.548088502
5.562779455
5.53591533
5.439257545
5.423023691
5.623747505
5.498871522
5.491504478
5.398489732
5.386051626
5.292604684
5.192401842
5.371992306
5.494437171
5.651006871
5.868610355
5.687555432
5.534355563
5.436848648
5.546793825
5.711302549
5.778493271
5.895630807
5.79155846
5.661525088
5.562014476
5.508841203
5.596448521
5.649446189
5.53349252
5.407281789
5.370135625
5.288697267
5.346599783
5.526663433
5.449040113
5.581836194
5.558671429
5.447288998
5.408654242
5.331671531
5.369621169
5.355631247
5.560853197
5.668754903
5.546721424
5.445853755
5.333889983
5.224141255
5.387363661
5.436418342
5.594088412
5.567076937
5.461817993
5.338665219
5.401963322
5.274948872
5.33737618
5.410493192
5.451631616
5.401635814
5.390815067
5.422264869
5.584136177
5.637037676
5.575859475
5.635853233
5.63286811
5.591609539
5.475355934
5.423797166
5.410716397
5.555460184
5.57509826
5.440569156
5.389785958
5.590177359
5.44520634
5.492888173
5.632233751
5.607274396
5.471714776
5.478682186
5.517788345
5.489690512
5.61423993
5.574832596
5.585649304
5.674124744
5.676844262
5.610744474
5.496163296
5.462764471
5.537679414
5.607429303
5.579764454
5.320272295
5.3091172
5.357782795
5.453636675
5.665532059
5.579476881
5.403874762
5.350426575
5.422062262
5.521372784
5.419903741
5.382578318
5.495093231
5.484201515
5.521953828
5.436233548
5.491125
5.430982149
5.376917154
5.345645009
5.587350662
5.494697454
5.510397901
5.425716863
5.486110224
5.649862806
5.611411035
5.473999136
5.546049357
5.585595652
5.481976448
5.54886073
5.573516282
5.606995445
5.686833845
5.606634461
5.569859795
5.45791396
5.392883358
5.575286803
5.532871041
5.658462748
5.640007213
5.620678971
5.606270672
5.441250225
5.578230233
5.608994908
5.580019869
5.80559914
5.714810896
5.523031962
5.641676958
5.553255512
5.643550826
5.634406658
5.5285492
5.542741201
5.456069766
5.585862597
5.686811264
5.583332725
5.374500366
5.411587837
5.456848557
5.521446414
5.574716038
5.608296392
5.771036575
5.570957935
5.522511931
5.571039998
5.479573997
5.394857813
5.538649881
5.481936094
5.600063682
5.536317283
5.631361836
5.456397099
5.449218467
5.370883006
5.28423847
5.463363509
5.481946887
5.242611035
5.371498224
5.362508429
5.510934655
5.455615055
5.482097278
5.416720041
5.424381678
5.480005274
5.497375576
5.60085003
5.52340986
5.396855368
5.486272257
5.634059529
5.598909271
5.682171821
5.635184248
5.431195356
5.484488819
5.40760142
5.299912397
5.323614448
5.36192799
5.455113314
5.456167723
5.570922216
5.57809847
5.572979489
5.565430631
5.521738967
5.590997628
5.628481392
5.526417467
5.594124261
5.581900154
5.517991407
5.686188519
5.803828532
5.688162331
5.646532644
5.500499532
5.756559761
5.717348398
5.593223098
5.54122204
5.537305958
5.651651967
5.613340728
5.745277408
5.530453666
5.544603803
5.573032259
5.656837757
5.685468693
5.687106449
5.672733941
5.590327907
5.526933434
5.65691744
5.590363297
5.628962091
5.450482931
5.505467613
5.600504421
5.624772218
5.523479183
5.45507925
5.468264193
5.301057212
5.368613651
5.437107892
5.482336581
5.540877501
5.55127347
5.565783802
5.596108212
5.584269587
5.637768416
5.655490834
5.499263356
5.39784777
5.554366897
5.524526019
5.738964016
5.53468753
5.587638598
5.50347091
5.515851858
5.682443818
5.780477461
5.583901021
5.665635288
5.674438486
5.61849711
5.669154479
5.638742742
5.554243668
5.61293946
5.640781286
5.641783336
5.646498799
5.664367145
5.744501825
5.346698611
5.45197544
5.554669093
5.568178021
5.717260367
5.492217138
5.54738033
5.60259876
5.669795521
5.604680629
5.523032187
5.592470229
5.601191474
5.626945758
5.552974187
5.542911594
5.568657811
5.60765361
5.362136397
5.265536111
5.512374018
5.478893807
5.448695123
5.456833982
5.512496621
5.555111924
5.72055568
5.592367459
5.531633137
5.48082297
5.585125439
5.724347689
5.76691335
5.703578859
5.644520157
5.571713572
5.417403153
5.426112136
5.459474023
5.57769359
5.369276768
5.531616746
5.727397481
5.745606232
5.73576567
5.786810568
5.818220634
5.730306368
5.716709614
5.554404997
5.398064457
5.417864696
5.47945754
5.597799172
5.722553142
5.703179215
5.630000934
5.601042438
5.626591941
5.502217347
5.543821994
5.622349746
5.644837535
5.5589595
5.505073654
5.464420557
5.423768045
5.463156922
5.525878968
5.448119614
5.469748656
5.631186426
5.699967647
5.723493365
5.543496302
5.56665997
5.500441291
5.525033309
5.551405293
5.561009292
5.571941576
5.627932676
5.577716877
5.594381791
5.491786191
5.42221552
5.445576532
5.539187391
5.504475063
5.492550891
5.439665153
5.522804604
5.476569159
5.230468333
5.318088475
5.329911267
5.508605477
5.653804637
5.424806504
5.549570561
5.383129292
5.396221176
5.465807597
5.647875939
5.600429918
5.540254123
5.521681488
5.511606734
5.744346181
5.768039731
5.586683827
5.432433803
5.409465436
5.649099533
5.551015092
5.461466974
5.37838461
5.27829094
5.28380781
5.40906471
5.598354086
5.711553144
5.602049927
5.524912815
5.510601232
5.654607169
5.627184847
5.594394609
5.62455292
5.665453893
5.651785038
5.562025207
5.606434995
5.618467247
5.537419194
5.376935267
5.452513614
5.462112565
5.49027206
5.395086978
5.67253334
5.638663396
5.788484478
5.639490876
5.672944475
5.607079752
5.690865103
5.727159751
5.644133518
5.542000696
5.532565723
5.4777846
5.606488338
5.742621191
5.852314712
5.849340961
5.911803394
5.911501421
5.752190039
5.619326965
5.473182642
5.585692854
5.551636173
5.508242075
5.300228131
5.417251433
5.33344576
5.333247241
5.443588761
5.48161044
5.582101543
5.675267384
5.572344754
5.492474116
5.456139835
5.483864593
5.492686717
5.336822712
5.262836372
5.422563045
5.501930565
5.597723277
5.511742838
5.43583901
5.554705298
5.539102203
5.477963276
5.452586029
5.417036584
5.490434687
5.297334994
5.419571613
5.532528797
5.667225815
5.501876265
5.425756572
5.63042249
5.84625917
5.863650585
5.8799015
5.47557814
5.477659715
5.492104682
5.66470174
5.48876888
5.476777454
5.456985794
5.430064476
5.468299428
5.479387372
5.424489017
5.436311591
5.373597033
5.291581057
5.50810992
5.72301288
5.713155017
5.707601286
5.666583505
5.581619687
5.330200375
5.411377435
5.490827483
5.607985584
5.597848297
5.580228762
5.43989048
5.459651625
5.463635862
5.497080278
5.527029965
5.531969557
5.620885632
5.570924801
5.442650738
5.417804804
5.555094977
5.669968112
5.614760154
5.490975878
5.363049748
5.422849982
5.512227554
5.540491726
5.703075844
5.744856599
5.68215216
5.516295412
5.392810915
5.563050303
5.399958079
5.471886894
5.401074882
5.303190885
5.407931481
5.670431546
5.445018448
5.330054287
5.283731813
5.356825683
5.477716412
5.485193354
5.583386379
5.628929587
5.568715166
5.39575017
5.426104263
5.480193847
5.210473801
5.205940293
5.220484226
5.303226101
5.492255329
5.353398337
5.39790779
5.35330368
5.461678466
5.581894821
5.387255432
5.384699086
5.555011281
5.459743431
5.414515467
5.437764945
5.494651597
5.633940797
5.625459122
5.481774098
5.577068988
5.512808646
5.492943421
5.496772804
5.487579603
5.575115081
5.432419713
5.263966805
5.300140484
5.526520909
5.474264917
5.589571342
5.505394461
5.613742984
5.562693606
5.638909688
5.603442264
5.588145748
5.658245493
5.69201231
5.579632759
5.578166455
5.514477137
5.616095818
5.573006299
5.34113375
5.30791112
5.486192856
5.515782086
5.349223038
5.263119239
5.397521623
5.539762186
5.485219033
5.3800453
5.378840789
5.387755404
5.568158873
5.697824925
5.706525988
5.653472989
5.637370407
5.593710037
5.608902842
5.462493601
5.374333648
5.326139355
5.244953038
5.257144848
5.283251071
5.418994142
5.607856636
5.568731528
5.513068597
5.439925876
5.34869732
5.591154213
5.659708835
5.669762645
5.72994147
5.759025465
5.704462523
5.548945325
5.476051979
5.529628647
5.407054723
5.413302333
5.437574885
5.395240874
5.631130194
5.501166526
5.540626206
5.644260166
5.693661843
5.579269857
5.808329584
5.639295302
5.630195521
5.595401178
5.648717107
5.672518003
5.789296116
5.771157442
5.687497784
5.670179328
5.602027034
5.563674707
5.565535321
5.514652272
5.487226036
5.411452716
5.558104269
5.511139502
5.615612338
5.678139176
5.668200316
5.753048652
5.723371791
5.906992886
5.868215105
5.788480128
5.803837696
5.916519308
5.79293514
5.82349644
5.56163674
5.474680655
5.47425983
5.509552187
5.439197233
5.522666653
5.533321627
5.540703688
5.396355416
5.432379748
5.36985262
5.613082455
5.597827511
5.583632906
5.661788791
5.474953195
5.526856744
5.564433343
5.518506339
5.519397048
5.495572536
5.489236955
5.539828938
5.444511595
5.59666225
5.721597
5.782390819
5.382218926
5.522242653
5.610659788
5.657400899
5.497636864
5.47388567
5.540148097
5.596632534
5.553891717
5.5424831
5.526764276
5.517335892
5.452155243
5.658097544
5.563159876
5.604010149
5.664923452
5.565030839
5.666675739
5.532145782
5.669297797
5.600234642
5.548406828
5.665151935
5.622492726
5.604556848
5.468192469
5.565052893
5.591075473
5.711238858
5.758336462
5.791791162
5.683011884
5.477202008
5.506705291
5.601934491
5.479297144
5.44564883
5.507253452
5.5370587
5.554122518
5.447101756
5.427103277
5.556827725
5.50668553
5.604311544
5.513589377
5.655458198
5.596841699
5.504607717
5.402112901
5.486626545
5.475113464
5.548541796
5.545271273
5.452285787
5.549498917
5.621363603
5.704538266
5.681848301
5.370881779
5.345063161
5.361165907
5.512602299
5.570808104
5.411128906
5.448246751
5.419852823
5.250359922
5.24291913
5.396717472
5.454032986
5.402181998