/*--------------------------------*- C++ -*----------------------------------*\
| =========                 |                                                 |
| \\      /  F ield         | OpenFOAM: The Open Source CFD Toolbox           |
|  \\    /   O peration     | Version:  2.4.0-MNF                             |
|   \\  /    A nd           | Web:      www.OpenFOAM.org                      |
|    \\/     M anipulation  |                                                 |
\*---------------------------------------------------------------------------*/
FoamFile
{
    version     2.0;
    format      ascii;
    class       volScalarField;
    location    "0.0009";
    object      Ma_O2;
}
// * * * * * * * * * * * * * * * * * * * * * * * * * * * * * * * * * * * * * //

dimensions      [0 0 0 0 0 0 0];

internalField   nonuniform List<scalar> 
5120
(
5.790590387
5.791836174
5.762246842
5.573303724
5.800174868
5.939410285
5.950245715
6.063497527
6.399733162
6.486632956
6.093437271
5.816570575
6.224076197
6.41500459
6.556796863
6.255455548
6.117000327
6.224935952
6.175230359
5.968258042
6.321371311
6.396197552
6.248320602
6.058822324
6.031681915
6.366755796
6.503536356
6.522951117
6.363120951
6.405527948
6.056465782
6.068223227
5.696903698
5.985408691
6.206488928
5.797030061
6.087715695
6.026507184
5.678187221
6.047772944
5.759463026
5.840882763
5.910855408
6.039544302
6.223383123
5.952260621
5.843517274
5.921084145
5.859713047
5.681712791
5.825127173
5.649952732
5.805190794
6.152499681
5.936866108
5.772048233
6.052134268
6.155755014
6.122453782
6.14983568
6.005404265
5.832202816
5.492989465
5.530631075
5.672426678
5.675181126
5.763224554
5.678321613
5.460553473
5.410325825
5.419919273
5.588891845
5.498368332
5.395645765
5.629297588
5.707215966
5.763120504
6.090652449
6.247071772
5.940989142
6.014411086
6.212517667
6.692734743
6.390994868
6.596416242
6.08711378
5.956317733
5.703802529
5.556985546
5.745209072
5.824446893
5.850027581
6.134703908
6.195254858
6.649818183
6.094444513
5.955346039
5.521851642
5.675492128
5.71838656
6.194015023
6.474783183
6.105605932
6.040901248
5.859626416
5.874701702
6.223797143
6.3487715
6.149114314
5.791147551
5.688036414
5.921784883
5.93546584
6.021294671
6.133020773
5.879226874
5.842760508
5.768628486
5.815144014
6.108172157
5.509944228
5.625447132
5.576273441
5.84343827
6.071472332
6.060826447
5.944328769
5.986658571
5.773550271
5.783581625
5.693604589
5.606312953
5.753533909
5.840125488
6.093885644
6.135370554
5.86394889
5.926936023
5.919745256
5.473699563
6.15338015
5.847974001
5.901970856
5.737730745
5.441680801
5.645421481
6.014011396
6.249986809
6.128339375
5.926367619
5.974396219
6.181550422
5.950514814
5.969862932
5.967003685
5.829993262
5.704325484
5.593889292
5.628021922
6.241998927
5.641978033
5.819219018
5.89233554
6.106879495
6.13127877
5.960634284
5.694914052
5.799046434
5.97491091
5.898427297
5.745205913
5.597101326
5.558386136
5.566842359
5.630323212
5.831353353
5.652562399
5.563908086
5.864452138
5.81111484
5.672158886
5.797931249
5.783441556
6.129714284
6.190915502
6.190304239
6.313220253
6.381354175
6.075167112
6.053320824
6.134704948
5.672969794
5.719882966
6.018826295
6.154644676
6.077106642
6.019947465
6.006154296
6.202665467
5.937124187
5.823828225
5.65504563
5.785138857
5.925581906
6.05340278
5.918387224
5.791135951
5.851023097
6.009851349
5.649029189
5.801355669
6.036151469
6.20735063
6.164541258
6.002638163
5.844928271
5.949182729
6.050036055
6.040599078
6.098726364
5.851234835
5.847571721
5.855634168
5.840473245
5.61280837
5.761205256
5.882733673
5.730587976
5.676006666
5.817470135
6.123294335
6.073319574
6.007947141
5.92261783
5.636382693
5.573931161
5.6521825
5.35314982
5.632720401
5.982316462
6.155523555
5.780137538
5.532804362
5.708933711
5.646648598
5.557783791
5.6359789
5.779920626
5.891778622
5.980267241
6.039308657
6.478088687
6.493533927
6.412650311
6.284183255
5.946399489
5.940555744
6.041923178
5.920872658
6.257004556
6.03015878
5.830866048
5.625940114
5.53503139
5.543769307
5.668640691
6.005961457
6.107580499
6.446398647
6.514776083
6.174982382
6.386822562
6.461579735
6.080117073
5.977444076
5.861445644
5.604818382
5.565570789
5.937803277
6.103912596
5.786777842
6.021653982
6.123753592
5.994912147
6.112286474
6.340922672
6.215821331
5.814985238
5.76173325
5.598386064
5.665542533
5.661567408
5.615068674
5.845459261
5.96293988
5.687165192
5.537279404
5.926671741
5.985208654
5.586633726
6.190277309
6.24798063
5.961666683
5.636174643
5.629847986
5.58932923
6.017617121
5.959707044
5.848370378
5.729546976
5.769398205
5.890825996
5.818535585
5.554699691
5.679274986
5.942317091
6.414176644
6.19938151
6.178925265
6.206215168
5.582016701
5.603687896
6.023693036
6.407085602
6.374682106
6.278394998
6.316479842
6.374526384
6.083705676
5.922678119
5.82228504
6.007428001
5.788088399
5.657682026
5.741275224
5.724504821
5.798816863
5.873967478
6.199151044
5.778917536
6.178833023
5.990210873
5.879054832
6.228597713
6.544551471
6.409583883
6.301946675
6.2206459
6.165583132
6.395262823
6.390815445
6.328541477
6.197786822
6.018462858
5.836792375
5.739400927
5.535610959
5.63506889
5.8757059
6.121418549
5.818484483
6.015904865
6.157087709
5.840642181
5.58148568
5.820018137
6.265865404
6.19318088
6.220125355
5.800177223
5.728697554
5.958998188
5.866775587
5.784931751
5.811888812
5.776915044
5.691291904
5.8584099
5.724667442
5.757949695
5.923513452
6.018706623
5.958064846
5.724078353
6.092372682
6.132234727
5.615953572
5.620702702
6.12769127
6.159139196
6.051081873
6.047653691
5.998733045
6.014091851
5.849642654
5.599601551
5.752568269
5.830138035
5.63064611
5.793136301
6.200225734
6.017167823
5.872369824
5.784045241
5.840007179
6.102975886
6.313036163
6.497337426
6.427016004
6.245791142
6.302645543
6.057492206
6.135108505
6.352581885
5.891745199
6.142626387
5.630339047
5.892363674
5.946795886
6.163634005
5.748604408
5.731655915
5.736542513
5.714639677
5.782628196
5.827258995
5.887440464
5.729670452
6.013799913
6.009144307
6.217160355
6.023563366
5.573444868
5.569999499
5.69294619
5.861345256
6.154256274
5.865454308
5.748917191
5.676428366
5.686235625
5.499474913
5.551981972
5.695555652
6.344647881
6.197482925
5.823462082
5.827318876
5.786818426
5.881050492
5.643182411
5.890548388
6.015888507
5.831942082
5.820917217
5.459355471
5.63071196
5.784283868
5.768295247
5.718090523
6.065886091
6.417392541
6.330791525
5.996277847
5.527966886
5.745679675
5.848820458
5.778799174
5.977710795
5.904494662
5.846426078
5.731732277
5.761485632
6.182335474
6.273904878
6.360335063
6.063108104
6.202838207
6.15519537
6.143140993
5.877129756
5.810623993
5.764511652
6.072923987
6.218191413
6.069393047
6.264023087
5.666769893
5.567584676
5.491972203
5.327745088
5.802715834
5.716103731
5.391508167
5.747688351
5.78060586
5.769868359
5.653732563
5.353664215
5.47663756
6.127916163
6.335045077
6.323520905
5.955126769
5.986319825
5.736639217
5.694404177
5.74430435
5.734547167
5.48988263
5.613037405
5.547854941
5.687222714
5.496765941
5.578640112
5.4653128
5.322698409
5.419143979
5.504987341
5.984233923
6.039542213
6.20326829
6.119295136
5.834300519
5.752306084
5.72749298
5.505282859
5.777638099
6.141644612
6.156592927
5.958017055
5.861711996
5.48796565
5.546094943
6.09879454
6.363755575
6.230641321
6.035658812
5.967149115
5.988300767
5.950429275
5.95370757
6.439096312
6.348326774
6.253560693
6.188058361
6.115354123
6.085629587
5.791201015
5.668907498
5.999185605
5.899141699
5.868453668
5.930318362
5.819945353
5.625821412
5.806539602
5.980451053
6.063128908
5.982181708
5.713110175
6.246457839
5.922095556
5.771596735
5.962572197
6.043472037
6.04616815
6.299656642
6.298765467
6.12132045
5.680265035
6.116163208
6.350133689
6.322447506
6.516049092
6.674779453
6.523139936
6.459135607
6.259603521
5.985599112
5.450805684
5.592989293
5.513388053
5.664434356
5.654420894
5.431799193
5.397874351
5.332715873
5.611488381
5.818630939
6.031175775
5.8866907
5.722095893
5.75114916
5.549046744
5.823999343
6.12727263
6.096321203
5.74626459
5.64987395
6.001125918
5.741764512
6.028981267
6.169885608
6.124030557
5.934531199
6.004599081
5.922016233
5.885153197
5.552292986
5.582776582
5.650878814
5.770553169
5.845902259
6.508437715
6.1734065
6.170231714
6.018612325
6.242287719
6.364343314
6.471095685
6.218743117
5.777403932
5.919927455
5.656567796
5.742259994
5.705881707
5.743806122
5.775307027
6.272163629
6.194730415
6.014238092
5.947085691
6.423581963
6.066800972
6.280965873
6.418328704
6.79371366
6.754076079
6.345720053
5.96352138
5.818008821
6.02819874
6.068618657
5.952130934
6.100496927
6.002295807
5.661541979
5.645251922
6.016062815
6.197911226
6.185960635
6.155611995
6.357047161
6.369854602
6.480493944
5.969388659
6.261781615
6.013391414
6.160397873
5.82914215
5.953720245
5.78330165
5.952289449
5.899531162
6.014311424
5.840107982
5.565770846
5.627351644
5.639975309
5.690274246
5.729603841
5.929671312
5.91412458
6.05765247
5.887309272
5.860827444
5.727000819
6.036659438
5.918463882
6.152625826
6.142556464
6.063298275
5.862087846
6.043392623
5.970397327
6.092649152
6.493411623
6.405260271
6.355849882
6.233256867
6.021752131
6.187197411
6.024597241
6.126985699
6.215543189
6.255077715
5.903717203
5.958879342
5.959049209
6.179129932
5.945677288
5.733797625
5.872127116
5.97870023
5.893598973
6.515290374
6.571781266
6.333228026
6.212738215
6.460165512
6.393858647
6.197128271
6.302392493
6.240555293
5.942535362
5.627150841
6.036118927
5.996964652
6.128030992
5.862831572
5.887632724
6.094106164
6.136449545
5.819531881
6.311189685
6.15809183
6.100739449
6.797529126
6.697291413
6.19175766
6.032599278
6.246044853
6.234786507
6.081151813
6.075483801
6.20387925
6.014416022
5.77969934
5.847939774
6.018678255
6.057058293
5.904095327
5.901234611
6.087581535
5.966788872
5.928979992
5.904557948
5.679224473
5.941225524
5.762380257
5.974242222
5.968975033
5.813158855
6.1459797
6.318556352
6.474581986
6.601174187
6.329569808
6.137557782
6.029545415
6.097880441
6.346852515
6.130704464
6.055555011
6.194770025
6.057081777
5.759735984
5.769788446
5.816108509
6.032327608
5.961740396
6.012696506
6.059490529
5.844550118
6.077818883
6.258098199
6.362073449
6.138313358
5.844517581
6.041407813
6.025194372
5.772285754
6.173069914
6.138954344
6.074583423
5.903210545
5.899526826
5.700652256
5.816214435
5.552211677
5.749250563
5.811915708
5.917984021
6.195007359
5.951638917
5.761447499
5.698580104
5.77648712
5.961428624
5.7789307
6.220914559
6.35785376
6.387578728
6.064305106
6.227158709
6.592473393
6.640925509
6.275317459
6.321472442
6.459408183
6.124769821
6.230411117
6.19903271
6.139758622
5.840853957
5.762083878
5.801824474
6.100051073
5.759754254
6.163269374
6.141182973
5.957196322
6.055690063
6.177161632
6.134742387
6.010401919
6.037216303
6.237054463
6.261654316
6.270004591
6.063307872
5.964716752
5.622340892
5.558758709
5.78869011
5.702933057
5.798142089
5.968121665
6.004415005
5.994298513
5.989515286
6.087599177
6.345412682
6.451840365
6.264954266
6.085340645
5.973089333
6.104151208
6.084092385
6.07843062
6.082816197
6.250818878
6.278477127
6.106441068
6.061696065
6.096540052
6.075996201
6.113422053
6.333250627
5.692365332
5.64651469
5.489146411
5.785984921
5.541175376
5.742016296
5.897110277
5.854500074
5.823966597
5.900251362
5.775669063
5.841032358
5.869354868
5.823095472
6.00276467
5.895502561
6.081608259
6.329571894
5.840080918
5.692133624
6.059537493
5.982036832
5.630726147
5.724251666
5.861935023
5.818527521
5.842495619
6.063585415
5.99783216
5.719110503
5.886169196
5.904654564
6.10529776
6.357958136
5.831633341
5.903912498
5.741574588
5.787191437
5.746884014
6.097826743
6.20445685
5.671396245
5.766660237
5.789773358
5.888795149
5.920562085
5.77458632
5.717546698
6.019519334
6.165959564
6.125415997
6.062114323
5.787819459
5.84466654
6.161814427
6.188029085
5.821629521
5.70527406
6.095638244
6.005829125
5.763266037
5.838511274
5.86246032
5.758461881
5.858703058
5.840408348
6.01313811
6.036452997
5.779034315
5.713869262
5.605692636
5.518789726
5.69831918
5.852005145
5.704366341
5.90630634
6.010510177
6.149580193
5.750482225
5.48699409
6.108889775
6.070421434
5.946417098
6.103338769
5.948367212
6.126748397
6.061177685
6.070734221
5.917229213
5.511154969
5.420598291
5.76030652
5.963691045
5.894549057
5.710225546
5.611472236
5.614053554
5.379767082
5.70311379
5.909872589
5.69642984
5.861179147
5.969910195
5.758078762
5.66644551
5.722814542
6.070661204
6.146353141
6.164050764
5.763032821
5.507774179
5.675209753
6.179318111
6.155027524
6.337534703
6.197516462
6.080333947
5.913349517
5.666474934
5.802749728
5.866399487
5.932370449
6.068441821
5.805158485
5.89408744
6.017816937
5.743992801
5.598482601
5.576447989
5.662801886
5.770760066
5.85396447
5.788725754
5.958604693
5.953040502
6.193902885
6.263990956
6.304882606
6.303355594
6.036393766
5.443244184
5.667984705
5.544612548
5.740346109
5.863686669
5.937399931
6.08973935
6.157577325
6.058309426
6.147301603
6.065910345
5.820765262
5.661928843
5.935054141
5.959848692
5.767944465
5.938900667
5.832576988
5.578086167
5.572794658
6.071811055
6.054189577
6.363144573
5.638147019
5.527658964
5.902439407
5.881874823
5.83594303
5.706742309
5.937130819
5.948306565
6.135345434
6.047032769
5.902610374
5.692968328
5.726673999
5.832744962
5.822425008
6.177021809
6.035420051
5.669709251
5.839797502
6.059028047
6.212274345
6.337984767
5.941722387
5.836368721
5.68142774
5.552576719
5.779514837
5.72711516
5.743922683
5.668859624
5.781124355
5.828457611
6.195339564
6.003504272
6.067243349
5.740426781
5.611865543
5.948207936
5.97045588
6.005371468
6.224825656
5.690417883
5.660217694
5.348700394
5.315635178
5.341944732
5.312487093
5.461061473
5.508715015
5.570791192
5.816455997
5.854691217
5.697227238
5.723040953
5.700564719
6.094090866
5.93051954
5.717548634
5.788109908
5.699951778
5.706383785
6.016651532
5.901885001
6.136950337
6.085712798
5.832992317
5.505123602
5.563181943
5.637912208
6.139397421
5.994068364
5.916769027
5.976977445
5.621113574
5.552187062
5.666234337
5.822639455
5.749380665
5.759967981
6.113498155
6.059009113
5.843063181
5.586833292
5.68922956
5.748373521
6.013792261
5.890935731
5.920194073
5.63483609
5.465303217
5.682429173
5.522442631
5.79619113
5.741890184
5.910360388
5.606645326
5.532901696
6.094315476
6.077543296
5.972700202
5.766216435
5.836385632
5.699817965
5.686863336
5.765204483
6.078683196
6.038183558
5.983655778
5.930321021
5.838530363
5.545500282
5.613324567
5.690121954
5.632249122
5.690025578
5.74788054
6.08074639
5.691309551
5.815464135
6.017656513
5.878627756
5.561941231
5.750269188
5.911361793
6.030737234
6.19767832
6.110935136
6.124494114
6.069036949
5.791189356
5.880928279
5.915848351
5.937940742
5.88776404
5.770680603
5.676950506
5.642266415
6.245399042
6.084560265
6.134961762
6.168639178
6.426660757
6.483735521
6.357107431
6.154513377
5.931972369
5.808803928
5.880721387
5.765936468
5.783551133
5.854307842
6.163154689
5.898850296
5.879519948
5.915720945
5.925630281
6.032528059
5.898230918
6.117030236
6.225164475
6.397339001
6.637454511
6.648812255
6.26597181
6.086433155
6.055546026
6.339853928
6.354206324
6.274849994
6.092469652
5.984125157
6.157725446
6.213343951
6.301573631
6.255058574
6.57999484
6.119826974
5.7758654
5.696302244
5.981600311
6.138769781
5.895106073
5.875139151
5.796501189
5.779282986
6.045966647
6.520395726
6.226264012
6.20769931
6.073575379
5.740966417
5.783968087
5.660804415
5.84610812
5.823813613
5.546216456
5.503999068
5.805073656
5.513647822
5.493826164
5.688819335
5.885126977
5.797646902
5.619751037
5.83112753
5.495242874
5.640550269
6.039956287
5.969556641
6.193729122
6.550683354
6.593898538
6.463067404
6.114074797
5.852661611
6.149369319
6.158773689
5.611025754
5.707472261
5.979411424
5.997783702
5.695505097
5.900988158
5.963043226
6.011083411
6.045569856
6.018968312
6.099996723
6.109464006
6.096734127
6.086619445
6.045773901
5.900967418
5.907644
6.192266921
5.983302341
5.875131597
6.125631389
6.062813084
6.050399548
5.775178558
5.796433642
5.586705827
5.562485353
5.412281436
5.675369801
6.038883605
5.948906919
5.887358026
5.639287135
5.864241237
5.850108924
6.03955925
5.908529372
5.910409268
5.859589843
6.048136337
5.831291155
5.979263591
5.711814839
5.946017891
5.871848049
5.982654745
6.000902563
5.893985498
5.882000668
6.13146066
6.207125355
5.970243697
5.971971898
6.277836262
6.38739447
5.911656311
5.731869212
5.937061976
5.862659289
5.695889167
5.969631108
5.639621423
5.787463744
5.792068579
6.118847209
6.017074744
6.103804339
6.071717839
5.994265831
6.078208508
6.140878149
5.874933891
5.501334538
5.606749414
5.574941651
5.748204557
5.864798952
5.488955637
5.312585487
5.854120236
5.830134529
5.775835754
5.785092039
5.824223324
5.691559561
5.891793379
5.65706257
5.81149985
6.128446853
6.218296645
6.025333993
5.993692146
6.080178947
5.846632218
5.968381003
6.15203832
6.143100267
6.093940604
5.802427294
5.670268453
5.616736762
5.92028375
5.995245637
6.057109857
5.944203881
5.796956961
5.960565974
5.872605194
5.797185737
5.701753791
5.690042136
5.732900353
5.660965624
5.810444972
5.61135677
5.741276065
5.952398307
5.966872055
5.763431967
5.691233826
5.735217305
5.611895571
5.521086108
5.501901466
5.793924519
5.933433399
6.105769975
6.062828017
6.030442474
6.363876789
6.393681451
6.559091267
6.364252212
6.231139816
5.73343267
5.522047022
5.403849596
5.779260642
5.840188666
5.829435554
5.881122259
5.609067284
5.760813364
5.778504288
5.681360134
5.954348872
5.995366796
5.854725923
6.034969656
5.679587339
5.846646748
5.937907057
5.767170697
5.715781874
5.837877149
6.258323463
6.073347595
6.072878239
5.87863107
5.975582395
6.591459701
6.493437559
6.18907773
5.891504361
5.753923338
5.857101616
5.833456248
5.699156785
5.614404409
5.915638894
5.75639126
5.710082341
5.841394362
6.106030967
6.177268224
5.796658927
5.925441162
5.940935656
6.135345644
6.177267344
5.628977276
5.671914048
5.660906572
5.742287283
5.863479013
5.836896901
5.861245064
5.713276181
5.702688482
5.772831883
5.957823937
5.881173262
5.872797215
5.596657746
5.64100104
6.166828737
6.130136896
6.082708287
5.94134776
5.842782021
6.218987754
5.964167304
6.108190203
6.01217507
6.136243862
6.166344523
6.032408683
6.026606825
5.896637771
5.917186278
5.748322969
5.914198557
6.218807348
5.944354769
5.895480369
6.111045143
6.211096451
6.043293647
6.254168969
6.470602148
6.570127944
6.169368292
5.911576383
5.78442199
6.125949186
6.421750656
6.279192032
6.199986732
6.203393844
6.376939806
6.192876705
5.89235293
6.003991586
6.100130251
6.175859268
5.923692657
6.026467443
6.396336742
6.445250961
6.54493532
6.015904022
6.096154512
6.408351578
6.292770649
5.828565425
6.215698148
6.288795094
6.517285918
6.438050674
6.274635972
5.670434398
5.984110958
6.181019335
6.189956268
6.083430643
5.904657794
5.784593112
5.947664978
6.363313102
6.153737546
6.027632663
5.851507091
5.892082443
5.66709422
5.440787405
5.899016091
6.33274548
6.396389419
6.270444471
5.746804142
5.954450683
5.705870113
5.822036377
5.833621184
6.192824744
6.047456405
6.022049862
5.909951144
5.659177187
5.657849254
5.948756417
5.964745726
5.899096992
6.030647364
6.024729325
6.046788594
5.829624894
5.968243006
5.729902154
5.731225923
5.630794028
5.685604939
5.476459767
5.800260358
5.787785868
5.903412142
5.545000633
5.457779368
5.586061578
5.869115944
5.369125402
5.612909365
5.56380582
5.638111799
5.927822107
5.699861384
5.734784535
6.01873126
5.953141108
5.979312311
6.070441019
5.934073684
6.060084481
6.289213724
6.3047375
5.954238526
6.181509961
6.090787085
5.954023484
5.494198079
6.043564034
5.902519166
6.071671883
5.671333203
5.501829924
6.127391656
6.395011988
6.598942535
6.450402869
5.892490624
6.010910439
6.025525914
5.938965729
5.62321497
5.393719373
5.4728939
5.682531112
5.738499808
5.615367784
5.703056476
5.717641868
5.776609577
5.48501916
5.661807336
5.810285148
5.908233453
5.772926799
5.671252155
5.676157787
5.663826693
5.718940101
5.788609662
5.655443579
5.550207932
5.841474144
5.889356995
6.120287905
6.191774794
6.055711948
5.792266138
5.769927899
5.86046354
5.986094703
6.070564084
5.691349109
5.745153266
6.035122103
6.037580349
6.170105442
6.10377962
6.059008456
6.000990341
5.860637939
5.6076606
5.702564928
5.579426516
5.538443049
5.732842584
5.662948782
5.534979461
5.620226663
5.829962454
6.065626518
5.875341854
5.832363839
5.838023124
5.961516874
6.252715226
6.52962971
6.263662397
6.120100341
6.06721537
6.072086954
5.879035494
5.800352253
5.59379272
5.706152058
5.633564828
5.812210699
5.854539746
5.661352554
5.860872753
5.613791473
5.54502445
5.626564221
5.56602655
5.843048938
5.787356652
5.777222092
5.91571081
5.976966382
5.831402314
5.634991432
6.120248179
6.243008845
6.137566345
5.938167405
5.986510379
5.894261585
5.769042846
6.224753049
5.95362392
6.15144835
6.036086304
5.647493062
5.861986567
5.744240962
6.246975247
6.521831451
6.742082853
6.152421186
5.875882715
6.038078116
5.764228762
5.897716653
6.056801807
6.181914183
6.207794191
6.429651697
6.087531356
5.917427667
5.794179219
5.64727701
5.63624668
5.515579058
5.819838483
5.970155598
5.925090974
6.150860712
6.108281532
6.193469907
5.915873073
5.909247869
5.931679378
6.201776436
6.17220514
5.850725287
5.688456955
5.901188735
6.127781739
5.819664008
5.877494758
6.103910515
5.949260571
5.81257061
5.842789483
5.801850381
5.927403153
6.013459944
6.007151441
5.805845367
5.80650372
5.77710512
5.718614135
5.950931701
5.940124685
6.042217852
6.141224119
6.052777452
5.795035947
5.989114973
6.108263928
6.181968421
6.081823088
6.11963618
5.832530868
6.049476395
6.235507296
5.857511167
5.791899376
5.874232295
6.018964637
6.017330603
6.031682476
5.89072918
5.581412285
5.467257129
5.69404557
6.101587708
5.977916749
6.018617844
6.048064567
5.881619418
5.719460281
5.855451595
6.021443454
6.052533342
6.081216684
6.009595217
5.843386634
5.764442498
5.704217764
5.869788549
5.579637431
5.560129719
5.479782222
5.714946977
5.788228185
5.651123917
5.862545466
5.944799748
5.894323269
5.819129073
5.751222076
5.749832653
6.053067896
5.809967071
5.748174494
5.915796691
5.804421758
5.645526305
5.89893907
6.000952767
6.324152949
6.435916381
5.765116612
5.837853059
6.036782941
5.718235451
5.906322244
5.552611959
5.979805826
6.046949002
6.033670695
5.768914718
6.047796983
5.94958111
6.425021682
6.099098151
6.13287818
6.350165269
6.283284435
6.248272864
6.191920852
6.026653904
5.999872744
5.685877952
5.28155383
5.493420234
5.546265645
6.133864138
5.857637811
5.909799506
6.193560111
6.391875639
6.154214412
5.831227383
5.753756407
6.435827127
6.43007028
6.272059481
6.335468268
6.071156169
5.795709625
5.665564092
5.738745134
6.209980344
6.394531218
6.244272663
6.600267583
5.571256338
5.666093073
5.764311985
6.187980451
6.245435365
5.932879266
5.982750559
6.186206332
6.14855622
6.044937254
5.976130903
5.936240388
5.819609666
5.881814496
5.765907428
6.216540621
6.28266829
5.959958901
5.718681339
5.681302962
6.084096842
6.176417788
6.039487579
5.778601402
5.757945971
5.744628481
5.909989662
5.746597608
5.632370707
5.813569153
5.971705474
6.057370751
5.927936092
5.962813983
5.922890368
5.964633237
5.579833722
5.901568072
5.90138818
5.681778352
6.933583812
6.534716514
6.150701547
5.93709296
6.082703945
6.313761762
6.07577594
5.879735209
6.097280406
6.032684086
5.783854952
5.953142873
6.200094888
6.031172409
6.000102727
6.049914218
6.126114054
6.190625086
6.609644787
6.683877598
5.585123925
5.804579237
5.990364959
5.962820597
5.985816973
5.542115542
5.894464853
5.769804986
5.928630906
6.033991866
5.914432084
5.646743793
5.469671463
5.446140161
5.503536369
5.699329972
5.718775428
5.619921656
5.660599435
5.501541639
5.639031265
5.551946908
5.907891108
5.922018923
5.807280521
5.663799861
5.685686314
5.805441674
5.897248347
5.921504096
5.79476553
5.665889865
5.362234606
5.605074028
5.59196142
5.419089367
5.252672565
5.276269079
5.45444535
5.490984731
5.969886348
5.726414036
5.690429596
5.260245389
5.680970904
5.379616418
5.519789632
5.486204142
5.457645325
5.701121011
5.521471523
5.854395838
6.058392869
6.109805109
5.978631797
6.085929738
5.701101727
5.515899649
5.41046542
5.85900566
5.966330479
5.752258015
5.654547829
5.734525121
5.53880591
5.736398238
5.975020521
6.015971981
5.963601027
5.930393897
5.687617952
5.709584612
5.880779844
6.089438211
6.009808648
5.741514854
5.725741793
5.946597715
6.051432503
5.762345417
5.688557763
5.718173884
5.541005402
5.777204538
5.717401979
5.700894964
5.528644001
5.70536431
5.777053683
5.860504091
5.808129619
5.898495687
6.038655618
6.277752017
6.24014078
6.344528127
5.951690434
5.877027643
5.868449673
5.775888619
5.678152081
5.800544249
6.117878056
6.298502906
6.058681891
6.174047427
6.133551646
6.497250835
6.177656748
5.930837416
5.9723844
6.094816285
6.199265873
6.072749228
6.044612601
5.898427325
5.769245714
5.466261686
5.548882963
5.972537686
5.739181166
5.780149493
5.976869406
5.878190285
5.889158301
5.762406713
5.87922012
5.822237025
5.977187226
5.852319907
5.822290932
5.893309755
5.663754824
5.770218124
5.52456528
5.661781544
5.699687984
5.779227226
5.874380945
5.576310738
5.762209214
5.794454212
5.724920906
5.909427967
5.988485749
5.790573545
5.928161294
6.13527152
6.004741796
5.914816453
6.005503688
6.201488974
6.109355079
6.412160591
6.211813279
6.198131283
6.340896446
6.087528333
6.050424623
6.026620103
6.001246637
6.077846814
6.249141256
6.395085444
6.133337346
6.187368986
6.307941524
6.084304467
6.020083044
6.173995022
6.222321868
6.103585775
5.846364922
5.72732208
5.740696105
5.758401842
5.627056153
5.83230104
5.651622293
5.822429677
5.895695617
6.061737232
5.991473081
5.991482896
5.858500274
5.854437774
5.616710628
5.759112781
5.957846975
6.317634781
6.436384511
5.97657878
5.845517999
5.683328444
5.710314092
5.683366343
5.72648363
5.749386598
6.237136618
6.279277578
6.093792544
6.253060614
6.000762494
6.322061508
6.334021418
6.236976026
6.353462224
6.378085089
6.371667428
6.181134069
6.379262103
6.068826957
5.985332916
5.853050863
6.053298312
6.316503967
6.07579333
5.865400318
5.902009968
5.818814086
5.779001533
5.683914458
5.689303617
5.788117179
5.83400365
5.650312649
6.176647631
5.981410191
5.853474024
5.701856917
5.657615265
5.761487876
5.663365642
5.947155587
6.159416018
5.927329847
6.091185834
6.366711935
5.918190434
5.857778337
6.526984541
6.447110789
5.989026532
5.938126032
5.954226914
5.996151406
5.990157807
5.981535209
5.677874332
5.882581744
5.947205959
6.006192095
6.258391012
6.027434773
6.070741867
6.166290729
6.11955623
6.175621679
6.30304038
6.137278006
5.512421045
5.790142267
5.922427957
5.880167732
5.878018932
6.400671015
6.358531165
6.256136784
6.169105929
6.150022299
5.89891854
5.777938041
6.008983665
6.000315022
5.926646757
6.108649338
6.103217241
6.057444595
5.972609548
5.648764406
5.862338099
6.08423183
6.008150649
6.112669995
5.777749304
5.731169432
5.829321127
6.09227007
5.966936505
5.992186314
6.128885933
6.171747637
6.179550014
5.879462805
5.693007272
5.514421314
5.51277528
5.670267101
5.809106899
5.751866199
6.018605029
5.720325446
5.746560089
5.959865622
6.004627367
6.095801275
5.752764138
5.644479434
5.567135532
5.580594589
5.863480526
6.09689312
6.253596425
6.235122295
6.248877658
6.122995234
5.866657524
5.757830946
5.703136522
5.959789493
5.47681012
5.483813507
5.523813014
5.421130619
5.512539018
5.505692688
5.528180608
5.74651538
5.552046564
5.509291353
5.674940543
5.425137277
5.344250548
5.685911929
5.665417409
5.759715958
5.828545476
5.807546612
5.306617086
5.496427108
5.651356441
5.481500753
5.443683097
5.556828615
5.386663643
5.418221215
5.526224677
5.162382614
4.907679404
4.874227708
5.398483231
5.552536759
5.540247571
5.428900156
5.730282258
5.714999132
5.625378233
5.767743451
5.834552321
5.665816898
5.831341091
5.808351315
5.67580558
5.518587383
5.877938269
5.854456244
5.868567835
5.685486252
5.745679937
6.058293136
6.25176981
5.971075914
6.214363424
6.007671836
5.865113517
5.845330555
5.983375874
5.742228135
5.981952512
6.042556139
5.61254111
5.720538852
5.790804127
6.027564692
5.917321276
5.913729306
6.114912702
5.786493551
5.531125714
5.599668866
5.657454967
5.637367017
5.431125141
5.308477412
5.481439765
5.839852952
5.949236512
6.099747344
5.464816189
5.646690094
5.763870033
5.443267697
5.554273577
5.632832619
5.779569389
5.828646628
5.648864629
5.715817321
5.918698277
6.255270567
5.984629944
5.966860967
5.787154036
5.960663298
6.011185589
5.848310524
6.115840185
5.974285433
5.936765749
5.830058543
5.706356346
6.238398051
6.073093932
5.716080398
5.828154476
5.986868223
5.911846835
5.753004296
5.519704947
5.559995168
6.024628847
6.150917822
5.825220519
5.618761494
5.618937989
5.599886067
5.872633464
6.022427757
5.691005992
5.489619149
5.965559266
5.864522133
5.589456124
5.753051992
6.219666239
6.298696482
5.97406668
5.888939432
6.02364866
5.965308816
5.601617217
5.734809281
5.959823507
5.968905189
6.08511494
6.339351571
6.094161967
5.86080663
5.758507399
6.162078087
5.580628179
5.86567883
6.056472824
6.265821661
6.270711301
5.962066119
6.309078047
6.052945656
6.167255247
6.054879025
6.192191003
6.131853068
5.92800066
5.965292723
6.00820008
6.488695872
6.212446638
6.115625685
5.923279756
5.742762278
6.071459212
5.991172416
6.117117224
6.221928918
6.400383232
6.547938579
6.478880061
6.279315841
6.201714057
5.952994066
6.040095917
6.237848867
6.241321297
6.09300192
6.293657258
6.17525816
6.157115278
6.19557849
6.127140836
6.100752308
5.938449031
6.01037378
6.070149761
5.904267933
5.690024774
5.884063329
5.825958112
6.088969735
6.305242293
6.240528955
5.842849585
5.931917995
6.214535783
6.242286404
5.784087521
5.764701215
6.017680569
5.762046481
5.617060323
5.591237792
6.37580597
6.048063063
6.117665415
5.956057554
6.324843682
6.085904048
6.132268744
5.908064108
6.006652717
6.348576336
6.21853145
6.181754936
6.084430376
6.147819353
5.98703859
5.738919854
5.922895001
6.054805954
6.338066623
6.614831235
5.986001946
5.929574977
6.067575081
6.269810094
6.384650105
6.158014842
5.983937001
6.079672594
6.208924345
5.894589867
6.001715207
6.021195888
6.118842577
5.857677213
5.759848971
5.896728275
6.155358613
6.007550391
6.092293654
6.033086331
6.204594027
6.356715791
6.560292292
6.346064107
5.956988274
5.802138383
5.726140291