/*--------------------------------*- C++ -*----------------------------------*\
| =========                 |                                                 |
| \\      /  F ield         | OpenFOAM: The Open Source CFD Toolbox           |
|  \\    /   O peration     | Version:  2.4.0-MNF                             |
|   \\  /    A nd           | Web:      www.OpenFOAM.org                      |
|    \\/     M anipulation  |                                                 |
\*---------------------------------------------------------------------------*/
FoamFile
{
    version     2.0;
    format      ascii;
    class       volScalarField;
    location    "0.0009";
    object      overallT_O2;
}
// * * * * * * * * * * * * * * * * * * * * * * * * * * * * * * * * * * * * * //

dimensions      [0 0 0 1 0 0 0];

internalField   nonuniform List<scalar> 
5120
(
310.4226377
314.102458
306.7713298
323.6367741
310.4361086
292.1917319
293.0351821
289.2542004
269.2179248
265.9669153
289.6044603
305.0751627
280.0507163
273.1041481
274.5984505
293.2698254
293.7460554
293.5000533
298.8852986
313.4215899
283.0072644
285.4895443
287.0089312
299.3671003
293.5674967
293.2069316
286.0340513
274.4165919
289.6002127
289.1522689
292.4263553
277.1664826
297.7972206
287.3076666
286.6174193
313.7905067
307.4795574
306.7217344
315.735878
291.5623072
323.4530081
314.4686927
311.4257638
303.0719535
281.6069274
296.2884065
294.4757513
293.081334
294.7646461
314.9659366
314.197019
306.1332371
295.9385571
276.7043288
281.2156247
293.5631029
280.6109713
283.3747525
298.8655446
298.5217996
292.3550027
300.8713018
321.7042974
312.940238
307.7155915
318.4441349
315.8262752
302.0767679
296.9136504
308.7294329
308.2475314
310.0294369
319.7175629
321.0919149
311.4760161
303.8480716
297.3281153
269.6143364
268.7844457
293.2051436
285.5617925
275.3790136
247.9724601
261.8089808
260.1975955
281.930503
294.5612072
300.1234028
321.3622633
307.8321341
298.1875844
292.575012
283.6215472
282.983289
276.5692295
287.3980308
297.3034965
321.7867661
308.156573
303.5948434
250.2033271
235.0135962
269.5480764
269.189781
278.7779643
284.429117
282.4578133
291.3557375
301.8013954
309.8576915
306.6691471
316.6039183
312.6233319
289.4662208
289.2488572
292.9126012
290.8425507
286.8171405
288.9555711
259.237181
331.0746237
329.9450989
337.2840565
315.9286963
317.7304442
298.8928922
298.8459996
279.3392459
286.4096787
289.3536219
305.5665107
299.5248815
297.3616345
293.7545506
271.6830473
272.5528628
299.0210915
301.9175505
304.0117329
338.2172708
281.6405583
293.7742919
293.6367984
311.7826834
330.8000589
326.4316677
307.5534142
297.4638295
302.9634615
304.8620008
291.2811335
278.9770774
293.1840452
294.9432992
290.2788585
293.6535314
286.2180227
291.6185164
298.2724355
264.6316606
295.8093089
297.0200777
292.1079867
275.3956682
286.6127504
306.898188
334.6646763
312.1403434
303.3615069
303.4696989
321.1134405
332.5055139
327.4403143
324.3001474
310.2619909
293.4595586
287.1759396
293.1738645
290.4381532
283.6222582
322.4369072
304.6251146
314.1982771
301.9031462
282.2726846
282.3933607
270.7990387
274.5945468
270.7342454
275.5435687
258.9136435
290.9007483
302.5434442
292.7165615
285.4050184
296.0543716
309.6405006
314.2783225
297.9917264
304.7808839
326.607248
320.4326731
304.2595405
294.1999288
293.3553392
296.143492
314.2114912
321.4763334
298.3131472
310.5012857
312.7296066
306.0687171
272.8952865
268.8105368
277.9885678
292.8514706
294.4841418
291.4373318
296.8622605
300.2004295
286.3683657
277.7992813
278.8107351
284.5388301
291.4894162
297.6526535
292.2515905
299.190183
317.005264
316.785992
294.6674582
302.1302372
309.1786648
314.3948707
332.6826747
349.9049999
342.1455235
365.0134459
333.5193405
284.440738
300.9042635
302.7620931
312.8808759
305.1768783
316.2314868
314.5645303
306.7931901
297.0038499
284.0303521
282.9483909
284.825002
267.5653714
266.9606807
265.6922753
275.6881871
303.3824657
301.2836958
295.9343092
299.7361081
298.3727235
290.7262734
300.1340071
324.5466633
328.7168238
323.3837461
320.8876636
302.3282478
285.99478
265.3450309
265.8059551
292.3579248
273.1552404
260.5081442
275.0332531
285.2607988
291.0283038
309.1752742
317.723157
306.7608356
299.6868723
309.6471553
293.5204554
281.9520658
296.5466683
293.4504816
283.01927
263.920696
278.6784438
288.6066898
308.8198948
308.8937884
312.3371267
319.5916572
299.6048872
291.2094343
320.2724805
317.324538
293.8515129
288.3478832
315.2064445
292.8222332
303.0488116
318.9155801
338.2639569
334.9024205
333.8872418
299.4851853
295.4889508
296.6671939
314.203573
310.8451402
306.486764
311.697189
336.1681658
316.7238355
295.4318143
275.3649165
276.9115209
296.0393671
289.5639659
320.2907103
315.9028833
291.6837429
272.556398
270.4052371
271.5110905
279.2332343
280.2360109
289.6830792
295.8234707
302.4418211
288.3998599
304.4751555
323.5998954
319.7403916
307.1617219
299.0636473
296.6292893
284.5585723
299.9039345
288.9450619
294.0769541
307.2565119
291.7259922
292.4057161
305.8206258
302.2320261
295.0257646
303.3424392
287.8970333
281.7612988
294.9607297
297.9806341
305.7016434
304.2366358
319.8025437
321.1252096
314.0110754
293.0481765
278.9834313
279.5968894
274.9252645
266.1234733
287.5007739
305.774769
299.7274544
288.4156119
308.9755736
299.1220722
315.1644089
317.4150746
311.8362515
317.4644699
311.3484076
316.4582385
323.5539159
321.245524
310.211303
302.2893861
292.554438
281.8470829
288.322564
301.5143739
326.5767014
302.8941536
304.414533
315.8447615
327.175509
310.4699548
308.8996048
315.2719243
312.5442396
304.0040822
294.0161007
289.5339025
301.6488536
288.9642379
296.0880574
304.6637528
301.1118391
280.0526387
283.5387246
290.8151503
283.4788406
276.973342
260.7196479
248.146063
224.1178208
240.6754596
262.5588663
257.6811568
264.8251462
266.4203208
262.635622
292.843703
285.4380744
314.9075567
296.4949505
293.0899829
277.9226505
297.78701
293.8647955
286.4536526
284.2206897
289.3842567
290.5623416
282.7816327
296.4567683
302.4372553
301.5785578
301.6624175
300.7854824
316.1215661
294.1640982
295.5974872
291.7065036
274.8404372
293.0131306
302.6258226
308.0708613
323.3570583
334.790169
322.2645955
323.1423037
280.6386457
296.9516701
316.9888031
321.4229732
306.2587171
289.4515051
303.9328325
282.164184
269.5217769
303.5635446
302.4463103
338.0829926
336.5314978
328.8365269
328.1893765
332.380044
291.9318576
276.2642261
279.0318744
305.1223783
326.7759309
312.0930681
299.5759908
298.7211089
291.9505079
292.5814967
296.3611391
305.7157339
301.0631766
276.0870793
270.0883661
266.8380232
293.2419287
280.5798797
287.2844367
297.994119
279.7263094
294.3292494
296.9135631
279.5658804
274.3279166
278.0840324
264.3355218
307.3398894
311.3533033
308.3065907
313.7468327
289.0692836
289.668779
318.3483191
292.8381601
279.0645067
289.1339528
310.5171719
328.0502793
305.2953803
287.8503687
286.9625536
296.511375
318.5775328
320.0373454
323.4529719
332.8875398
314.4629723
310.9447597
318.5231942
311.938046
309.207147
297.0249363
310.5520514
304.3141163
312.1878594
321.6514252
317.0383055
310.8597357
280.5265503
312.4908146
306.0451744
304.6495224
318.333336
318.6118285
313.8027799
314.413036
301.551677
294.1480181
308.9107617
312.9089845
316.2151986
321.2952413
302.7114432
269.7183062
261.6163149
263.8996418
280.4404095
290.7187209
304.7095282
314.5916641
307.8857291
290.3818871
285.6514787
286.3940484
291.3446729
287.8295551
290.6169568
309.7048497
312.599265
297.8570683
302.6764701
312.3047313
320.9986431
321.1395231
323.781361
311.7468342
289.6833311
290.0385924
310.2693258
306.4595721
274.9346848
280.7267265
288.4366127
284.3048907
282.0833769
293.0332677
283.3947763
281.7212792
292.2811678
315.7917503
299.3082755
274.5704653
282.8220466
263.1676465
258.3153545
259.6643998
257.2711973
268.2083106
293.4154067
313.518106
304.4050022
312.2702226
308.20267
300.2504809
328.5767846
326.7194277
340.2331394
320.1064619
324.9335315
299.8179843
318.6783934
331.5061975
330.6141364
332.6832842
306.9289431
279.4809378
276.7061293
298.9725054
287.4152477
292.8716881
312.9224468
301.8937924
283.5971488
275.3193697
293.0275648
294.567977
313.3990691
313.0333388
325.1172947
313.4903906
301.8266039
283.7468941
280.6776516
247.8564765
267.4387376
288.4843795
292.1899859
287.9756214
279.5030515
274.8920445
283.2176603
296.3662865
288.4219179
317.6585752
305.7145057
310.5367366
318.5342925
308.271362
278.8273733
282.8908759
301.2369928
298.2295318
264.2296875
289.7915951
284.8030892
272.2178278
257.7968488
259.8609719
284.0073261
288.7382361
305.0423068
298.12019
298.6789157
294.5494241
289.3495345
298.2090748
308.7315621
298.4207802
286.1269003
280.0781155
282.7560204
291.9490121
287.470157
286.0433049
275.8205457
309.9382034
293.5522531
297.3161135
279.7269351
305.9032809
291.869906
304.5842195
291.4869355
294.7214722
286.296169
294.2776329
311.2336797
323.1234698
317.2590321
329.0966113
321.5476406
298.293812
295.2928656
283.2109082
292.9851175
299.9239817
304.1698877
300.9453689
310.6488593
287.1083726
284.309029
290.2889373
293.8649843
305.8923804
298.1307962
303.0916362
281.0585686
276.142365
278.597602
276.6966544
299.424532
287.6670679
291.9303649
290.2516894
277.4466168
276.6544417
295.7288437
300.4330641
307.5815273
273.087005
282.3470512
296.5343006
289.427523
299.3821455
308.8760022
284.7748716
258.8672778
270.24051
279.761262
271.7936563
280.9274824
284.1348836
264.550338
280.419554
297.959866
313.1710575
283.778988
291.2077631
274.8669336
295.7321703
315.649069
297.9464098
297.832222
312.1201214
289.8946071
291.2674329
298.3750876
265.45678
253.6256548
280.082108
283.3771189
277.5046526
278.0244852
287.02277
295.7281361
292.8307874
279.1235256
298.1226806
295.9603838
315.4422004
312.2315048
299.0817747
295.1053271
282.4851133
288.8831974
289.1639532
302.2664254
326.8862298
326.9659069
334.0469863
320.8622651
323.6425917
341.0656417
317.271948
296.3126824
288.0150493
277.897675
296.4257772
307.9597305
284.6936544
285.8257645
298.2350304
301.4100596
309.502392
306.8262367
310.1464788
325.4027556
322.8587564
315.0841519
314.4696763
322.6074224
316.1880399
296.1722424
313.0906185
315.5068562
311.3657921
307.2418666
296.8561561
294.1239828
301.268603
304.7065725
321.0344483
296.000599
287.8756286
286.9525152
286.44368
285.7080873
296.904766
299.3979258
311.0185143
303.7684154
296.8533244
293.0558385
283.2231563
300.8350829
309.2397957
304.5321851
311.4122085
305.5951536
308.429458
272.394394
271.0125019
269.9830643
288.6103798
278.94735
261.3789149
262.0342685
280.4375612
278.5685566
276.4366092
291.0790785
296.2702271
296.7711079
292.3632848
306.2934305
310.6459355
299.9983702
279.4542354
306.6330557
274.7688145
268.7210402
263.7454999
249.0798515
257.381324
267.9058783
285.8093068
288.0696147
270.1389801
265.118445
278.1559413
298.2998134
300.530266
307.5022978
315.925882
309.0053657
324.7120458
308.9668187
302.4360643
297.64245
272.8370722
288.2041652
274.051601
282.8836581
271.2256367
274.9220012
277.4607023
289.4864975
288.6213439
301.3952704
285.0484594
283.1030043
267.0433674
270.3166708
281.5916541
274.051694
272.2126189
286.4522139
288.5502115
262.6469824
303.213107
309.4794316
324.9891921
313.6625877
323.2365354
313.7940718
312.4576976
309.8374025
308.9117813
294.3487125
295.6810327
284.8863406
290.1159069
292.1247788
281.8840113
291.1187771
278.9243458
271.4706828
289.0235104
305.0115985
290.2932636
295.2751223
305.3484425
298.5324731
300.0260345
305.9004526
297.836531
278.9203117
283.3436183
315.4359428
301.0159215
307.0253508
301.979755
289.7316756
319.082873
327.9626887
337.3814086
331.8750036
329.3830012
296.4997128
286.9151115
313.4208492
323.224444
328.2990574
321.3966857
322.4542063
327.2060787
320.5321259
293.7709328
289.7030001
291.6980451
312.484122
316.9005831
325.1861367
313.5885571
312.4716882
322.9627082
322.3377859
300.9417517
301.7839021
282.2926029
277.9249822
276.7073736
288.1947123
287.4881066
300.2762505
307.8794111
296.8974307
320.4116161
319.1199985
332.4695789
333.8025298
324.2736094
319.9882565
325.5554856
283.9229552
279.2207139
269.2376351
272.3623262
301.2141541
293.5778368
289.9992998
310.8169565
293.4870597
302.5772142
287.5099833
284.7642454
283.8926718
287.8942336
306.7644074
322.9233223
298.0998508
281.9430364
303.2509301
302.9545095
320.660899
321.1211032
334.2224699
307.64792
302.3189658
292.3057984
282.4450578
285.424474
304.2449766
324.8297328
310.3640132
289.1825311
276.631801
258.07052
285.7659711
307.4138494
296.0968888
272.9328459
281.9817999
279.6814382
298.4746923
293.3805492
296.4310944
301.2697193
293.2901172
309.8582313
300.3301015
288.1487704
318.3152642
309.5148821
291.3191995
298.464074
291.639975
287.0716825
279.4780236
286.1773789
298.8771637
313.1409932
304.6076962
318.8018619
298.1072367
291.8863552
297.193356
291.6489695
296.0812767
332.7502035
316.6060366
315.600742
302.0403399
286.5461624
286.5493449
287.1637746
285.1810568
287.7079369
289.4205421
294.2875316
297.8228723
299.7712476
292.2689564
291.9174676
298.5294886
291.5455676
302.0179836
322.3700116
318.4232833
292.2004636
304.3381547
299.4355066
318.151553
314.2464788
293.2804457
304.9149227
309.7856243
325.6601365
319.3279378
312.4425285
303.3581989
286.5730107
288.2757566
291.7114757
301.2242156
301.5866008
307.7388031
280.5218374
286.9779586
324.6682489
305.9866598
299.911362
300.4691639
298.7085309
311.9235788
315.0800148
330.701403
331.2085961
309.5277578
308.8365172
298.8133024
318.8377979
309.1722687
300.7311333
272.6073296
286.1564001
265.5549053
301.9366178
318.3780452
282.5989063
290.4769516
289.5263739
285.9066135
300.1095802
311.6616987
337.4858388
334.487076
330.1641654
346.5897944
338.3729681
345.7862872
351.9236252
319.9255509
312.6477937
313.712444
308.0320597
312.7046553
289.3006607
297.9443045
326.7467889
326.7236271
322.8313438
316.7651239
302.4367459
298.900964
292.5131878
283.6487765
299.1594357
329.4094488
328.3819299
315.1546854
294.1277678
303.588398
302.8938874
293.7344594
309.6485051
305.620478
304.3332709
307.5560667
321.5423174
308.0585881
279.3978124
287.5919454
297.2417259
312.9427552
301.7030103
300.5960684
299.7874339
298.8930825
294.5894959
315.5758715
316.994993
295.4097985
316.6338555
297.1228317
307.1755923
304.1013713
318.4726501
320.3718664
271.0296352
281.124714
290.5545972
299.7645693
298.3043587
303.4377828
297.6761727
290.2343745
278.9639595
293.0202077
288.2350696
289.5575292
294.7642578
316.7344886
314.7049039
317.8099528
319.9224906
306.9880867
296.2483939
273.932655
304.2374693
284.3738604
271.1663286
284.2464144
315.3444057
307.1077432
292.4797629
281.3311722
274.0316708
272.9308148
279.3406583
282.4216017
301.2443633
304.7888004
306.7633117
312.8168559
297.8720819
308.9869306
313.12701
315.0142903
271.4310941
284.6522544
289.9904219
283.4437048
267.5517404
256.2522252
269.7975602
283.6331527
290.1986913
292.8399991
295.8100217
298.8155481
291.1160009
285.9902338
263.6596709
289.0611467
295.3387982
283.0134512
280.3355461
275.1344748
302.1231533
287.2698335
280.1022425
267.9314459
260.3380722
262.6526921
280.8557909
301.3833942
302.68132
280.6941936
270.1372086
280.0670696
286.546302
296.3578934
282.3060205
273.9154831
264.0029018
289.0752138
273.0960532
295.4504613
298.0340332
298.4527319
285.7128065
277.8634843
288.0337821
290.7241111
303.4905218
311.1753683
307.2422969
284.0954307
290.6807857
295.8639598
290.8679181
309.7846195
314.1130912
313.1129883
306.6537059
292.4585512
307.2071422
317.2958634
326.9133021
351.4055785
351.3436819
334.8409429
313.1477185
298.666791
316.9177661
294.4193543
322.8129435
319.6334666
307.9812677
309.6723901
321.5797115
284.8206313
273.4237565
273.9740557
290.5153968
309.782373
305.0985147
306.8452512
334.1914663
331.6218592
312.0071796
305.891329
326.1414804
305.3673717
295.1391196
299.3795692
291.738941
291.9349326
296.0829202
278.3414739
280.9596945
284.1923066
289.1155895
299.3067115
301.7544495
298.4748608
315.8983082
323.8489489
281.7822314
290.1455758
296.9469562
306.9856542
299.6429131
339.7640278
344.5255278
348.5061002
324.722465
295.5062887
286.8316881
287.2828086
311.0610666
300.5877547
301.0289706
290.0091583
296.5601413
287.349349
306.3888446
293.0727051
292.3296456
289.2688717
304.1168526
287.0030011
287.2598841
290.47267
284.1098196
309.4070468
317.2317164
301.3929539
281.7171543
287.0226451
290.9904544
283.7199235
275.7074584
293.3101212
305.9411182
303.0248294
299.7966861
309.8254761
283.7758932
302.2051326
299.9167776
294.1806235
276.0286222
285.7690198
273.6538886
278.3225157
279.7695471
290.504839
286.3366958
306.1493232
321.7456785
305.7924649
317.4294195
309.7767715
299.1347929
325.1126072
324.8307989
292.6963423
292.5922895
303.3160613
306.8775521
308.013463
306.0100026
300.5333734
313.0270699
314.0366927
295.8876543
287.1205058
294.0400623
300.3833635
304.2152469
308.9278326
289.2735564
293.3692732
288.1953412
296.2590084
310.6812749
302.6272205
299.8752493
290.3555199
291.3269886
301.0588879
296.8837272
297.108225
298.8495008
316.3441783
315.0203091
323.1486379
329.1480486
345.2786279
341.3848859
335.9580416
341.960993
321.2535741
294.386688
290.8150842
305.8051132
307.9644907
313.4524889
315.2601119
325.0110779
315.8916646
307.6814987
302.824458
288.8875104
291.8537259
290.7786749
280.0052004
287.0108281
267.9503277
275.5993738
284.3757087
314.5783092
337.903354
358.4704635
330.6172733
331.9199461
311.6924479
317.8090762
315.4589843
298.1916556
301.1852685
303.0509972
291.0909213
304.815901
308.33871
314.5933398
325.9632555
310.9677474
315.4940105
301.0638808
306.2654614
302.7099921
288.3041447
293.8023511
296.400444
297.6013234
300.2480348
255.1782756
276.3192349
295.3146608
311.3737858
322.0555378
298.4931731
306.2083872
319.6829015
327.175658
301.708798
309.0575701
311.7162341
308.0039375
303.9651557
286.7007505
310.1248511
300.8143796
296.8867999
296.4811688
278.4879468
309.8215747
308.4565424
300.8272912
298.0779421
301.9369061
310.2108583
302.0437384
302.1513057
300.05464
290.1579909
282.8850647
281.3314315
288.4450472
301.6506573
300.8446625
266.5613835
271.823414
286.5742671
286.710193
293.8124947
274.4497298
295.9215309
283.3282732
290.6227751
278.3931691
276.4067459
277.4624081
281.5441805
294.340995
297.2796634
301.5572309
286.336135
275.8469121
303.3338159
302.8522323
284.6809835
276.7258166
276.6464855
269.1806776
261.841568
259.3428282
275.7295066
288.1507124
298.4449637
275.741546
264.6347659
278.7364057
280.3857467
278.1764068
270.8167955
291.1279204
316.5667265
314.7701346
309.6526053
302.7012818
316.1265983
305.0202806
277.0196533
266.9247549
259.5879584
282.5811218
270.5196592
256.0301552
285.2172695
323.1384551
322.607237
315.2125635
313.6421769
307.4470941
307.6590109
342.9735985
321.9910621
307.1840211
293.6296498
293.702099
293.1761931
304.9909907
295.6838377
286.3541142
282.3816396
294.9714281
312.0968504
310.3313499
327.7022595
328.4656732
304.1680302
279.1144189
280.4692225
284.9815791
321.3160007
310.3559237
325.9550197
314.3410293
312.782997
296.4094483
302.3480931
296.2591739
305.2440153
303.9082564
312.4197031
285.9511958
282.4377301
281.7731134
280.993725
288.6422244
286.5494278
292.0701998
297.9379223
310.3030871
311.7328464
315.330658
312.7213262
317.7012939
300.5207148
290.7184094
289.0776353
308.6112427
303.0246512
299.5218118
284.4078974
315.923335
314.9207589
324.0889862
331.3546328
324.3959484
343.5186088
334.546002
313.8363415
314.9570487
300.6335187
296.2060368
303.0427282
300.1396466
280.0071619
280.0100179
301.995677
290.9320259
297.8452002
296.5909882
306.1579132
317.2528062
325.3375869
303.9340952
325.2618427
337.726301
305.5975393
281.5117344
270.3667295
273.9831422
301.3562526
296.6838421
290.1113152
297.3473765
313.2539869
326.2696489
323.0238902
310.6868426
316.1082496
324.1916528
343.2077543
321.7842022
324.9555914
340.8948623
327.510178
318.9876551
317.5933636
329.0548175
315.9771318
313.1111874
325.0946927
329.1116825
325.5847959
321.6163082
309.5125233
291.6102669
295.8748566
296.9955585
292.0919372
288.3918073
309.3233403
291.0485514
290.0684082
281.4171523
284.2747079
306.6030775
297.7230791
284.3991896
282.021054
277.0608159
285.3475277
296.4981587
291.9983256
310.7020578
327.8299265
325.1623739
326.5821482
332.1944787
319.1926337
310.2081031
303.0567843
325.8908668
311.2042575
303.3473578
301.8938715
287.7592331
286.6226909
287.4520969
278.7279643
269.2308913
278.1410216
280.9128416
287.4761333
289.3919876
298.2795991
310.5219783
323.4816049
309.6615844
308.3062662
301.1499916
308.8421703
319.3214219
322.1858124
332.351601
333.245492
326.1575761
326.8130607
303.5662734
299.2158058
302.988852
302.3205453
294.0280055
309.4749976
324.7823985
285.9672728
279.2106055
281.6853344
298.3669643
289.452223
297.3183472
308.1843376
281.892613
289.9803188
281.9741009
288.9453225
315.6844525
291.1585537
305.3921794
277.6181865
261.0395992
253.6963077
282.8904273
286.4890511
287.5450418
318.9550358
311.6881248
296.8687281
279.9620257
274.5081728
265.9435214
289.7860004
296.9515492
311.3886485
322.5516744
317.3502917
309.9320515
299.0176225
286.1785419
292.9338391
286.2518609
295.6693523
274.5027777
293.571025
278.6291329
278.6710885
282.8891506
290.3260511
296.0704504
297.5360212
281.5347573
284.0146334
314.6270971
294.4953733
282.1670475
290.3924388
303.8969382
311.8422687
311.2997709
297.808444
290.7441534
286.7670847
296.6392179
296.2591997
295.6454443
301.6790245
303.5515049
301.8417382
293.7001704
298.8965797
302.1705602
313.1612181
304.9905738
292.8520288
295.1688673
296.8201411
293.0684887
297.654853
286.0538408
274.6151856
302.8228678
316.9998268
320.2381793
314.2344744
297.8482774
291.1818071
294.5074906
320.6865784
323.8070088
320.8842669
283.4392235
300.189926
302.4064414
289.6323966
298.3605432
311.9039307
299.2170932
294.8059253
299.0644672
300.2234298
299.0972999
296.3820804
300.1886756
321.3483057
315.9427488
323.101879
316.1822971
310.190462
302.5528182
303.8553848
315.9062963
310.0514602
313.515137
319.3972313
321.7806829
312.3803939
303.4163932
288.0903823
300.6513833
316.297605
301.2512986
323.6536069
337.3531909
314.8962851
318.7615459
289.7232483
271.0375257
298.1486752
300.703669
293.6526005
315.6410832
306.729237
335.5222835
299.9927115
293.9082479
303.3463149
314.1498596
299.0244735
309.5599233
285.1597568
314.6056611
294.1578546
278.0110074
279.5434267
275.7655663
291.1957091
299.7553557
314.8335478
340.1413782
371.5775045
356.7322243
340.3576309
292.4951664
308.7762307
307.2638802
291.3660507
286.2709083
302.1584914
308.4014555
304.6182076
276.2319634
272.1541029
275.3148144
273.2160125
283.8430867
288.9895269
296.0771522
300.3398596
276.7586322
266.2531295
276.7071576
263.8427384
325.1174434
326.9930324
304.3855323
300.1735738
298.4238556
301.4443385
305.0866506
286.7954804
280.5095247
289.4867329
292.5049835
303.796232
311.032067
311.8211679
314.4072853
285.7306716
292.4566668
297.0329588
310.6003036
309.8889405
308.2773518
301.7837499
306.0063657
320.0176695
313.5164871
311.6754988
299.0749263
317.1676812
336.5791548
316.6814077
301.3569563
297.2719977
293.6702975
308.2138318
309.6693394
300.3639642
322.5437954
310.9906365
312.9769422
329.8107867
271.1357995
284.7816816
289.3854772
296.3293539
300.0851412
295.0870836
314.4465885
310.4699469
296.1388403
298.1230017
309.0053495
300.8818203
285.4210995
308.8994973
301.8781154
302.3740348
294.23896
299.0893425
280.4504294
275.8010246
301.6929464
298.8097053
306.1868569
299.4360475
316.5225277
344.9745046
319.3318126
324.6318637
321.1977619
312.0456303
316.8435329
325.9797793
333.9161762
326.6078483
326.5379163
303.6266977
301.4228048
302.676577
299.1531768
309.4459822
323.6201652
321.8474401
284.573176
282.4086191
285.1247211
290.3484676
292.0563367
293.3288756
293.7488657
302.421861
313.1212391
324.8734506
355.5273463
335.5083126
328.6810388
336.6065809
338.5919317
337.4585657
330.4419872
330.8310386
292.2081687
299.2612627
299.7261811
326.8532103
292.4735041
310.9183205
303.2124376
323.6094189
310.3374254
294.6110785
304.3558624
278.904221
280.3752599
277.7321201
292.5564937
291.5534908
319.4765064
341.0221113
341.6533192
301.2802884
284.2561796
302.3535415
314.1158563
311.9096356
320.9882702
307.8768262
297.7775872
290.9336733
309.6916488
309.4261084
310.5675526
299.5543033
288.3037029
277.313606
278.9749577
294.5894227
303.5147393
299.1566388
288.3394616
302.7589797
316.4189223
307.5008606
321.8914594
304.723479
321.9378417
329.6453252
351.2127985
332.0646026
326.6368677
314.0127338
323.0637504
318.5868522
318.1849138
304.2096387
298.3626691
286.9171691
304.4830811
302.9301851
297.147771
301.3909056
308.0364769
305.3418016
283.7893065
281.7306594
305.8876539
284.6976063
275.0558271
261.5449651
284.0359721
296.3793935
286.4431156
283.1933833
267.5215509
281.144907
280.5001835
293.9869933
299.9859842
321.8773915
313.546454
296.0564972
294.6446005
293.6850725
286.8297478
292.6225735
293.3358448
310.4456465
312.1731781
321.8386011
314.0319985
317.1785423
322.3101219
313.0056097
326.2669073
321.7136147
333.8326879
301.5450295
294.3495785
287.8883134
297.8457957
308.8813167
303.6348283
311.4331087
314.5510747
300.4626691
297.1492059
302.2768555
300.3920018
281.8142568
286.8792967
285.881088
289.2612559
274.9619532
283.591916
267.3191572
282.3769142
280.0437298
266.422404
280.5133786
291.8818566
300.0348166
287.2493532
289.7382868
266.4868332
256.6011912
273.3386606
287.9038438
293.3552567
312.4815484
319.9044592
310.9691129
299.1740884
297.9351946
314.2011762
306.3001469
297.4792695
295.6303587
317.9128852
305.53217
317.7744632
302.8642798
292.714504
291.8949933
302.5842913
309.4520374
310.8793131
298.0157207
315.3385064
300.4361791
289.5302933
278.2315697
269.1270258
291.5537845
303.3352427
323.0023089
315.6869206
324.501099
308.1788792
303.5022144
278.7507211
273.2757247
296.5705617
286.708645
292.7024418
272.2472092
276.3094215
272.2463785
258.2740988
262.3126339
260.9704674
269.6075396
266.0144775
288.1494363
288.809203
295.2526914
284.991009
263.2602447
284.5545308
300.7975873
298.8038545
310.981924
301.3446958
294.8873015
305.2856153
295.2241181
296.6611586
314.9202844
289.0292804
292.397409
310.9339128
328.6802081
326.6159183
325.3066302
322.640879
308.467923
297.8541133
306.3146504
299.5297299
284.2974415
290.4584262
307.5616947
260.4464439
273.5022149
284.3865909
298.9307489
304.5747284
295.9691
300.1433644
296.6823375
307.4661519
298.0562128
299.6863149
284.1126767
274.6134968
284.1591402
289.2118771
271.0876276
284.7204261
276.4490028
275.883848
282.0176242
331.1053398
316.6630945
334.8307582
337.305035
314.3308072
279.6398046
287.3428166
290.924817
295.065337
289.9121691
297.8344664
297.584441
288.602865
299.7323346
315.6194274
309.6744181
304.8102909
311.3079392
322.0182464
329.6704104
312.9381042
310.5793055
319.1632948
299.651246
315.668639
307.9832796
300.9241024
285.4903654
297.4751699
311.5917083
297.3644135
305.6091479
306.0269883
314.7322576
331.5812011
335.0597743
333.7672341
314.4838888
303.7848271
314.0846401
305.5228619
336.6023075
332.8098441
315.4208145
313.0269982
308.1846629
321.49036
336.3144063
331.2699053
325.9934961
305.4250983
296.982357
282.8569647
274.947615
274.778879
280.9304978
298.3142518
306.7031232
317.6668278
304.1797113
312.1089865
299.1841434
298.8255671
315.8884378
312.57405
311.4886822
312.2619139
305.1954573
308.8176147
315.078275
308.0812843
326.7244206
339.6733522
321.7214145
319.7191666
324.5907989
319.4238547
322.9540509
361.2287646
335.8887666
316.0480631
337.8041981
341.1349325
331.2366205
332.5509265
324.0213901
308.8685554
339.8780029
359.9816164
353.0529135
323.2206863
313.1071252
328.0709932
339.0752732
324.6782079
333.325697
338.4707306
315.3580806
293.4137774
311.7560384
306.0949622
312.5564098
303.4906688
320.7683226
305.9935375
309.7522382
304.3545755
323.0074483
319.2500883
316.6282509
301.7979216
308.4407855
291.155688
285.6393567
293.230433
290.309094
282.9000421
312.3170503
291.901181
294.4446808
302.0394351
307.6522492
313.218469
298.889652
317.05765
314.4701792
298.9393583
320.2838013
329.2855488
311.8549326
302.445533
303.1160251
310.7952547
337.7499845
340.907276
318.9667681
299.6550695
304.4987583
322.9324146
319.5787996
308.4862162
319.7705054
310.0984391
305.0810859
298.7276619
297.1756975
305.5055562
301.8516252
290.5611057
285.8568003
304.3916932
307.0981031
319.1748475
303.9299974
301.0655583
304.6527677
287.743573
292.7585984
299.2287164
305.6140675
308.9497954
276.6197368
280.0004091
295.8648532
296.0727276
277.8606485
291.7925889
299.6731415
307.8789381
307.8287978
281.7769687
264.6689275
285.3359469
297.70176
286.4088695
309.2962481
307.9694827
295.7887549
309.0959252
324.2040778
268.7555606
283.873646
298.5832501
285.9190504
257.0986594
260.344707
289.7038172
300.2248305
289.7417181
295.7627631
318.8888304
304.9841392
302.436513
299.717037
307.8008441
284.3432875
290.9198445
304.1522714
297.3000916
269.4450189
317.5810575
306.3294997
295.2273322
284.6260221
278.979847
297.3833634
275.6196769
282.238436
280.5612747
287.4048389
274.2944188
284.5611647
291.3633277
305.1766385
302.2801597
280.2734723
292.4356479
291.7144832
296.7010313
306.2495174
282.102145
294.5755934
293.3240043
290.7326129
276.7645331
272.1871881
251.907617
265.2143333
271.3347379
279.0750398
285.010707
279.9082337
283.4995055
291.7201772
279.5328739
280.8478505
277.1774032
272.153636
278.8002259
272.8154821
308.3971582
309.156565
300.8049841
314.5669964
324.4561079
315.3404901
307.7524139
294.1510844
276.8278449
274.2227674
298.4649396
291.4220004
270.9367625
266.522352
289.8119303
283.1144065
272.5609722
290.2588899
311.3865559
320.1407508
262.9812985
290.810247
287.8002821
293.8746433
272.6154403
292.3828818
295.1467748
297.2812879
285.358779
270.5911174
265.8825251
272.0802458
272.4089577
277.5588945
282.3276273
301.0284317
292.9409935
287.2662373
277.4780414
260.8355834
287.2830716
292.4629472
276.504622
284.3351383
282.1292236
289.6862736
297.6595592
291.2267762
292.9730572
298.134741
302.2413819
292.1943757
300.5903005
308.4477573
320.7145671
312.7433157
292.2896528
295.715541
295.9062114
293.0117867
283.6905908
280.1017925
287.0487742
285.4165941
296.5015565
308.1691975
306.0444422
311.7432614
294.4138253
290.5576112