/*--------------------------------*- C++ -*----------------------------------*\
| =========                 |                                                 |
| \\      /  F ield         | OpenFOAM: The Open Source CFD Toolbox           |
|  \\    /   O peration     | Version:  2.4.0-MNF                             |
|   \\  /    A nd           | Web:      www.OpenFOAM.org                      |
|    \\/     M anipulation  |                                                 |
\*---------------------------------------------------------------------------*/
FoamFile
{
    version     2.0;
    format      ascii;
    class       volScalarField;
    location    "0.0009";
    object      overallT_N2;
}
// * * * * * * * * * * * * * * * * * * * * * * * * * * * * * * * * * * * * * //

dimensions      [0 0 0 1 0 0 0];

internalField   nonuniform List<scalar> 
5120
(
320.0195163
303.3577205
286.8896727
283.7509473
299.7198955
300.1589064
304.1983639
308.0980229
302.0462111
301.1640289
300.6676565
302.7972879
308.7699444
315.2500162
302.7597908
300.1036804
298.7600713
302.1186929
308.9635926
314.7958613
295.8955606
297.4492912
303.211368
298.4548724
289.0118233
287.925635
286.4964421
303.4210524
311.0647403
311.5500386
309.0143451
304.3260335
305.7476936
300.4937995
305.3032299
299.271899
300.8787546
305.7699098
301.2950412
300.9845122
305.7048422
306.2087544
297.8822478
294.0132862
291.5267004
291.2953366
295.9381027
301.6111838
299.5838784
294.637404
293.2916947
295.1565362
290.9260955
294.4019023
301.9641856
308.3762416
303.5029763
296.7780411
290.7337049
301.170166
299.5463868
303.257815
312.2097618
300.4159204
305.8752875
299.906698
311.057175
303.3610851
304.344654
304.6619566
298.8783642
295.7960561
294.869964
301.0558598
295.4157961
295.1705072
300.0394461
301.6323891
303.1166065
295.2702687
318.0822133
309.6677078
296.3548364
298.1421412
299.3186622
310.2307051
308.8825381
314.2028543
310.7366046
299.8823517
302.1373978
306.8986118
302.0383953
297.4667901
301.9993215
309.3819624
313.8542395
317.2269818
311.9451368
313.22287
293.8007656
293.2359064
299.6193158
302.474405
299.6334261
302.2168729
300.8658329
312.6972841
309.7395886
308.0279902
297.614373
296.7697715
300.0267808
301.6394158
298.391311
294.7815709
293.4886401
287.9283802
289.0135601
285.1424998
296.7132282
290.6911405
299.8130357
308.0879227
303.7982296
303.7239841
291.7961525
289.0508698
287.1898806
286.5630409
288.1700606
293.8028118
295.1655693
297.7942338
289.5499835
287.2921337
294.5968975
293.0552242
296.2177576
292.0259038
306.8458547
308.0112921
311.3220689
297.1613517
299.8730288
291.5114403
300.4065237
282.3878675
277.396863
279.7842509
286.8486958
296.9757159
297.732114
301.5662068
303.5251703
312.2502175
301.7744634
294.2283621
296.379544
307.959141
301.9494779
299.8315126
296.3531072
304.4742356
300.9919775
292.9008586
288.9108561
289.7125317
290.2662518
297.8617345
296.9460655
300.8169001
301.1167028
301.1186964
302.7438369
308.3072588
308.3800045
308.3862795
305.5688284
304.9475018
301.5024356
296.7190892
300.0751607
302.2078686
290.7715363
296.2770424
299.4496548
295.2648778
304.3142052
310.1329115
312.3573985
294.6132207
296.0842429
303.5024862
302.4955984
305.2881796
301.7686848
304.9387308
313.0225944
309.3299747
282.9447413
290.5500846
290.2373404
287.9078809
293.5254991
293.7200689
292.4790842
293.6071352
297.6472487
295.780677
303.7122288
303.7421435
293.9032042
287.5822448
299.291402
285.5837631
284.7886732
291.7459705
293.8100909
298.4530557
319.0215736
302.337228
305.392048
306.1926086
309.3112909
301.4607213
299.0619825
299.3491665
290.7931305
299.4594743
300.0247996
305.5058467
309.8297673
296.3080028
300.7562118
293.1851899
291.6283616
301.6414315
300.6786978
319.7461122
294.4992926
298.3633483
291.6044731
296.5451959
306.7451055
314.091053
299.8196558
299.1304977
299.6575166
301.6911422
302.592886
299.9757676
294.0791272
303.5930032
306.136411
300.6223171
298.5299598
298.66238
306.5244989
304.2872919
293.8885537
286.1675564
292.2542521
294.8660488
303.8142096
308.0493134
309.5653555
303.7363219
302.5759074
302.9847128
311.4580383
296.4917226
306.3539762
309.8389319
303.2067772
299.5282235
293.3357602
290.3733543
293.5182601
296.5983196
290.0257837
283.6803176
294.7246555
299.0391733
308.9242561
308.7806784
294.4504842
304.7502908
311.2520199
301.3554181
314.377316
316.6195742
313.5762851
311.4596918
304.1176974
309.9609786
312.8448322
296.7577361
287.9705419
288.2862185
309.5950329
304.9508171
304.0305995
297.4241698
295.6831709
304.8020496
307.9405129
315.9449991
324.7738155
317.9506631
325.8974766
321.329324
319.1067711
313.0231454
323.9632822
309.2377594
300.1884686
286.9947693
301.6511146
306.0869014
303.50697
300.8735498
309.4618123
307.7493182
310.4304906
301.0807416
291.6078499
293.0682125
299.4689071
301.86325
299.0077716
302.1585202
293.8168998
294.6411705
295.7763102
306.914557
314.1184851
311.9676019
307.372681
313.8561875
306.6262508
319.4849657
325.6753576
324.3736537
325.0190471
318.26305
310.2576536
311.0229803
304.7477784
311.9080829
307.2443992
304.6235
299.6484155
300.5953693
304.6971872
303.7536215
312.0950718
313.9823704
303.4699821
302.4395467
295.9681317
289.0978723
277.2171949
296.032114
290.5714545
297.3254721
295.2209292
293.8744187
291.887843
290.6721408
297.1381204
302.2370412
316.1271197
311.2041358
310.9693614
307.2215473
303.7949838
314.8955756
308.8001452
300.7579159
296.0935066
301.3628883
301.6675634
297.8124411
287.5644383
291.5987266
285.2779498
293.685401
303.5776085
307.317401
314.4133523
308.8460759
303.351077
315.1782796
306.4914201
299.0112063
297.6296566
290.4711331
302.5393409
299.8845458
288.7482561
287.8251662
294.1486881
298.549791
305.698971
300.791551
292.8766825
288.9286565
287.436138
297.2880214
295.5224611
320.2326165
313.5372413
314.949014
310.1573601
309.9449345
294.3158826
296.2163392
293.5996642
291.8822051
320.7911986
311.4506833
319.0189086
304.675615
305.1845196
309.5539707
318.020774
307.9422738
294.0551313
290.4622924
298.7215401
298.9200749
310.661349
312.1964772
314.2450951
310.2881125
313.167421
312.8036445
323.9083526
321.7816857
300.8922959
302.5908502
286.4439722
300.7790569
296.4235982
293.1300666
300.7094409
293.2636784
298.6099335
294.9947545
290.2996394
296.8288012
289.3453695
283.7201525
284.1277519
284.1780992
289.9731835
300.8692669
309.4459421
308.8963442
290.6197765
288.4676581
286.8706858
296.043569
290.9273095
296.1031133
284.6628927
300.365265
299.439582
303.55014
293.6596151
288.0078551
285.2183644
290.0839005
293.9353919
296.9718665
304.6412078
309.9664737
299.2185461
297.3692605
296.746503
302.2314654
299.9517814
299.3307508
290.8491287
290.3705391
297.815328
300.5707819
311.95197
310.2452417
305.1597193
297.7712226
295.4943573
291.0706457
294.5931645
298.0183984
309.0742529
305.7564697
304.2767901
296.2063093
319.5614556
310.5876249
310.3011997
308.255236
312.4909842
301.1465688
288.6566478
290.3125279
283.5350342
287.6673292
286.6853127
296.9080254
303.4230867
303.7132723
308.1899884
305.6744285
302.1225258
306.9621522
325.6443958
317.1366945
305.2914079
316.5198803
297.721107
291.9668184
274.4784865
279.5713781
273.9096215
288.1801924
298.6117381
304.301825
295.2044578
289.2712085
293.0943917
295.435874
284.0009293
300.0509181
296.8880514
293.6673896
294.5680465
304.8236332
292.1916231
291.5614492
298.5111579
294.5620412
303.2835651
298.9178346
303.7728637
308.3849269
302.7015542
312.9687056
309.8437097
310.388619
300.999596
298.0501426
290.0231681
293.1799939
287.9131126
293.8205654
289.3039205
288.5764813
294.1253009
300.8602184
300.003475
304.7823119
308.816704
299.5380303
304.2626289
306.1321121
305.9979191
301.3823414
310.5541097
297.6515891
302.9781268
298.4229666
296.7609729
293.453434
289.5424918
294.421276
294.2780364
304.809933
295.0918547
305.4594017
305.8289376
309.6894714
290.8470007
286.5853751
279.3043808
290.5327332
302.4426311
300.48938
285.028957
289.3337262
286.0219941
282.5046763
282.1570515
287.395746
286.4526848
283.2017535
277.02024
280.032805
282.665534
301.6076516
298.1172043
294.7095601
292.8200244
301.8050999
320.7911753
316.6734028
294.3121001
301.1104363
294.9560292
287.5639669
291.6877775
305.1079497
310.3536455
293.7828733
300.6763889
303.2875645
300.9979237
289.1512614
303.6166699
300.0863233
302.7345222
314.9098126
310.0704455
300.3548665
285.8840193
295.6323284
301.2698978
301.7781832
299.1804726
301.2504884
311.3633182
309.8853258
317.6472659
313.4937055
308.1819394
307.6011881
314.5348929
310.8655548
311.6316352
302.7012047
299.5461128
291.4906167
289.5296501
286.1556873
302.9460233
314.0757752
293.3578874
285.128139
290.2353138
292.13984
299.7149525
302.8720572
300.1566364
314.5855796
318.965843
315.0321046
308.4914667
310.7139291
319.4739317
315.8905088
316.7755778
317.7303131
319.3304804
324.720883
315.2561317
309.3180191
315.3764984
311.6067078
301.9013009
296.117032
302.0745687
313.4337917
317.1602096
327.1972142
323.3443887
328.7683113
321.4410206
319.0721366
297.8568725
296.4718111
291.1704803
289.2935991
291.1945126
293.000613
294.0113012
298.1507501
289.7940931
295.5518332
297.6215966
307.080339
305.4939899
303.9524375
313.6606029
320.4300117
314.1406231
311.2364586
301.2752773
292.9107327
298.161176
300.76524
312.7730727
303.7446925
306.6542788
305.0847452
293.1481411
295.4718532
295.2695358
305.5233382
295.8731094
295.7611813
295.8295184
293.9645255
292.0059123
282.4395094
283.7029784
277.819998
268.6955933
287.5327745
295.9903416
296.5500093
292.3594681
305.39474
307.1447101
321.512615
309.0844014
297.7735463
315.7263064
317.591044
307.2218322
307.794844
307.3542268
304.6116416
304.7776049
306.8316492
305.8136497
300.3596667
301.4375191
293.7416073
312.3882927
310.8512498
305.5783854
304.7632517
307.0328705
306.072211
301.6047958
302.5518043
300.9031784
300.3074627
299.6905218
315.5931475
300.4234304
297.0837354
296.1794288
297.2917141
303.6882304
310.4900805
306.6021024
317.2592587
272.0501632
290.5831014
292.9170445
299.6066328
307.4093064
302.3393876
296.1315446
295.8568582
298.5238529
297.5553755
295.3470425
289.68208
287.8119364
292.3279508
290.6461963
287.5345409
288.0216088
279.705803
276.6079316
270.0384279
305.3527374
295.8569869
295.4255425
290.9426505
306.6788582
295.5538075
291.0279323
303.3373864
296.4106848
284.1486094
277.7866133
282.9087858
286.0931301
295.55711
302.2728057
294.4470688
291.856219
285.6291759
296.5054389
297.1469543
296.2556671
304.358849
295.0820266
291.2230498
293.5627604
302.3390912
292.167332
297.0107713
305.6588217
315.6811577
313.4632328
304.9548328
300.3436478
304.3392556
298.1314607
293.6448024
296.8167948
294.1406886
291.1767121
294.4349223
297.4619802
286.5530241
299.1567455
300.7050609
298.5423658
293.1099376
293.6556368
302.4897443
286.1175081
277.6837639
283.8859483
284.0601578
296.5376317
305.0814766
300.4972979
300.694323
300.1869424
308.2694693
302.5173951
297.3107891
295.7418225
295.4748723
293.7533229
288.6051388
291.894729
303.2649394
300.0285321
306.5298362
310.1049316
304.9826636
311.02517
312.1719269
307.6009872
312.7732041
307.9701195
293.8811372
300.9348871
298.3344597
293.7780346
297.0066148
300.5024985
294.5016171
293.2544272
293.3296985
293.2167148
294.900848
291.739214
298.0950366
304.4568574
301.4503791
303.0360471
315.8855139
317.2966213
316.6859932
307.9210081
299.6631491
308.2480842
296.8258882
310.1421519
298.8416313
300.2985034
298.0338549
301.5061488
302.0301385
309.146304
308.1955794
306.7888706
303.6449458
291.7915181
296.7377993
293.2609269
286.777692
298.5063434
291.6731256
292.688528
295.004792
293.7395253
288.084666
282.96432
289.9484679
301.2612903
302.718564
298.8009024
299.8040727
298.2859524
299.5152802
298.8443458
286.9788455
295.3182894
295.5184353
292.0629822
278.3371875
276.4157288
287.6003771
288.8380027
296.3951505
300.8066589
296.7532918
311.0560925
313.7287903
287.3051134
281.792235
272.7456897
280.6163817
282.422827
292.015009
295.5712459
294.0497013
300.0916435
286.8464413
295.6600325
304.6729666
315.5067542
300.9734049
296.5281014
298.1749437
289.4480494
289.9485606
288.8443244
285.0112929
302.0858509
304.268371
300.6237711
290.2981978
293.4426385
305.486333
302.2453275
301.1039716
307.661471
309.5548676
310.8559662
307.1682699
303.7559889
312.0179986
293.5964309
297.5421722
295.044806
298.5163426
299.1143862
306.5473863
291.1254153
289.4886196
279.6371502
286.108392
289.6266983
295.9436626
308.574222
289.0872251
289.1042448
301.2635991
301.4662154
295.004144
298.3291963
299.1699808
298.6273591
292.8535766
294.2413232
297.0230797
301.3728818
302.7759099
294.8074475
298.9816008
297.3138017
300.1445348
296.6305317
301.7270444
309.8825055
310.2870292
313.4490887
313.5176537
299.8368773
301.1476831
300.8721074
304.9187423
293.9569539
290.7851402
284.3304457
286.0747967
287.8247644
288.4786776
300.3270639
313.6391075
310.8558186
306.5538242
310.4037455
306.3668329
303.0216414
301.5706779
307.4681615
309.3793422
313.7348113
308.8398593
306.1974396
318.7363056
316.6902916
301.9636344
309.1516673
311.5577063
304.0238961
293.3180802
311.7381762
306.5959529
299.8508149
295.0159232
296.7925194
296.2369985
301.7339472
307.4593497
319.6210042
308.0703745
311.8286315
313.1410748
306.7299219
303.2580266
293.6098198
283.1917
282.0543971
295.3104066
314.5817707
310.2169487
289.6250925
291.0967201
284.6494375
278.2975362
281.4737765
292.4218362
306.5912675
316.9031104
307.3259588
307.4644416
294.5157136
283.7226807
291.957255
290.2042141
286.2943648
279.196919
297.5657114
298.5142263
292.9160213
296.5409849
283.0953138
283.777391
291.0646835
290.7329039
292.5084612
297.2126706
300.1160584
307.0837556
303.9719765
292.3624956
286.856946
286.2231846
287.0764185
288.2601216
292.5072989
287.1011789
286.5677478
284.5553176
275.6819682
279.8362018
306.139509
306.8283674
296.3315245
316.1211025
296.459671
289.9315304
300.1426846
309.4203974
298.837102
307.640088
303.0959096
290.8675761
291.4444589
296.1765478
300.4280538
301.0190164
311.9540539
303.3422144
305.9893054
304.8496108
304.6363351
296.5254811
302.7922793
302.0002681
299.1914203
316.0179038
317.8719737
311.803116
306.643917
304.0134303
300.672708
306.3075369
309.3809268
313.7931277
302.9517613
302.198577
298.291928
298.5795835
300.6463135
302.3594705
303.5105673
307.9939782
308.6072619
312.763106
315.5245236
316.8640682
318.7457452
314.4440276
323.6152527
316.2662049
305.3227079
312.2840308
304.6904653
302.2465835
291.7195946
285.2024429
291.4582804
307.0885437
301.0832608
298.5476256
294.9841671
291.6668272
303.0138224
305.0892545
308.7528214
294.7839722
296.5929824
293.4643625
286.8063737
300.7882093
302.5893213
302.3817456
294.5550171
286.3350461
302.762847
307.2251508
315.3600432
301.0923946
291.1447651
297.3792412
295.7626482
296.990551
295.9416736
298.7262328
298.6468785
307.6386662
309.3335609
300.3808533
294.0283165
295.2064243
299.6443238
307.2995448
302.9970658
296.1889293
303.4382491
303.6875531
303.5026481
305.5367223
299.1872595
293.4030765
282.6770505
292.616888
292.9582285
282.1265541
286.0636488
282.7806712
292.9246079
293.0969478
300.7484514
302.1657061
306.8458767
298.28432
299.9942384
306.2775177
301.6833657
315.5647693
308.0197635
296.3250703
290.7401405
283.6296825
287.391965
285.1155799
287.0120263
285.9868721
292.249598
281.7580968
286.7377642
294.792316
292.1089372
285.5220155
292.0803046
297.0263644
279.3213041
287.2465474
292.8467309
286.7501361
282.8726031
294.6419986
296.7890693
302.8902366
288.8474348
291.7062468
286.3611745
284.3850018
290.3881957
288.179241
291.6209886
295.1216955
282.6943266
290.0265939
300.9633429
310.0078446
309.312008
293.4459913
292.1829501
283.8662057
290.1801781
295.1871668
286.07276
284.9010248
281.779736
295.3343696
295.3328363
286.9132557
300.0843718
286.982455
278.4692294
284.9802092
296.2012605
307.5235231
299.0590338
284.8094872
283.8321889
290.8518927
287.8841177
291.0281145
297.5550395
295.6935307
292.4006941
295.485384
301.5606002
314.0244752
304.869026
299.2884727
307.3179654
296.0726276
298.6842672
296.2453973
293.5193364
286.1589248
289.4248453
288.0533636
288.2250309
291.6550335
287.7900723
291.7246078
289.7388753
300.1981371
301.6323956
306.0878623
285.2579861
290.1064759
293.5832185
294.1573625
291.6709614
288.9846835
298.2879666
292.4212369
304.2511622
300.2254991
298.7669529
300.502617
291.1456927
283.1123223
291.0729496
286.1889175
283.0836116
278.3257288
293.8086931
294.9834346
297.7846054
297.1513161
305.1299863
300.6994652
304.9647873
296.0435039
307.1488426
302.0886613
285.4092067
276.9774345
292.5603371
296.588077
295.5764988
290.2677764
296.5229509
296.3527682
308.4707196
314.8417699
301.0243614
295.9520177
309.1596533
301.0949806
297.2886405
300.0967607
291.0846893
295.8960222
304.1073361
303.5618438
312.9071262
304.2684515
305.1851082
297.5211922
299.6734792
296.6915516
296.1432479
304.0143111
288.9726755
290.0043551
296.1074614
309.0419987
299.72506
309.5780364
317.8758063
317.0895989
302.5144214
305.0741991
298.9516077
297.0026367
301.3364317
319.2467896
308.5893776
315.7129102
312.4304869
298.8488965
295.2822144
298.0687928
304.7391533
307.2324284
303.8373111
311.7655487
311.49692
313.8812574
315.3288051
315.1894734
320.0276163
311.3474618
299.4841811
292.2568994
297.1247945
302.7614052
311.0058695
302.0122304
292.1891973
296.2711236
301.242222
293.8610863
296.9219015
307.8513392
309.7716659
306.6752208
290.3167727
293.9052316
287.7341964
296.4439317
294.266548
297.7034658
305.4807682
297.9351199
295.8313309
299.8965427
291.8265386
289.0770933
290.233924
283.3686161
292.6329969
291.0658549
291.2111718
282.2875182
287.6043873
287.7059913
299.8522143
302.7660437
296.5238334
285.6318145
301.919939
297.4650971
309.5582636
321.3639363
310.8523644
304.3350835
305.6393707
299.412261
299.2251218
295.808932
292.3883321
298.2603612
295.0392462
311.5283811
322.8215887
301.4323714
320.5097577
322.7026513
318.6404252
320.3605847
312.66087
313.8893972
299.5035617
300.5493034
307.8375701
315.0440198
307.8765102
321.7104696
319.4973726
311.8152626
307.7445765
297.3190813
292.2849809
293.7086432
290.366916
309.433495
311.2716313
304.9149086
298.0188647
291.5745205
296.2384551
295.5502341
295.3427764
306.8792155
299.3644337
301.2762033
304.1816944
297.2171823
300.3973123
296.8765353
291.6351397
296.8854615
297.606858
296.4666509
306.8322497
309.1188202
285.0900329
293.685123
290.7463614
292.875528
293.7439118
302.5199357
304.5355829
303.8865716
308.8072484
291.8835306
291.5444103
301.9877996
296.1022293
300.6467413
314.7001439
302.32682
300.2262316
298.9603999
299.4496399
289.3639008
309.3061047
302.0840263
310.2222747
312.6878316
300.7332035
308.812793
293.7595433
288.4865721
294.9450525
299.5003301
303.3249751
295.102807
293.6051554
280.9808569
287.3497781
298.3068049
286.9147499
287.5083839
293.3358193
297.4192717
286.0886567
298.7213094
291.8078058
298.7477459
306.2928432
302.5242639
306.2883571
312.6961405
305.3881266
298.3587587
297.0127001
302.4210577
306.8206358
306.2843214
305.5166433
298.5817928
308.6858753
305.1007257
296.6635381
290.7794481
290.0583018
274.9679626
272.8117033
275.7850435
270.8657953
287.9661503
290.6776508
305.5333235
287.5607207
298.8192775
293.7559546
289.5968493
280.3815901
285.2730158
283.748648
298.9630358
291.2753671
290.2874175
293.205148
285.9126934
283.6206947
281.2820244
285.7474534
289.077876
296.3304444
297.8769852
289.8279998
289.2074007
294.0911509
290.0521145
288.089445
286.5483741
285.9652885
287.9240014
291.6043561
292.0017125
291.1104668
291.380743
282.0662467
283.6588377
306.3562246
300.2494023
311.2097989
311.24341
306.8977651
299.5354926
303.2090989
293.0433845
288.1906725
298.4158044
298.7571718
306.9768057
314.9719797
318.6544026
315.6424857
310.2561168
303.2240095
309.292725
304.5743113
303.8203004
295.2125294
283.813544
291.9720391
286.5554948
294.2671047
298.4928839
296.0308209
301.4744293
303.5998318
303.1445814
299.8744026
301.4336967
300.8462919
308.7472368
311.6232911
313.7728426
305.5802888
288.2591794
286.0078825
301.2255064
298.3716071
290.7602703
301.4066684
297.6735358
296.1303226
299.7115434
296.1386523
296.6193591
289.9614142
280.1984106
289.4082472
303.7745303
296.6160623
293.4313553
300.1649866
302.6245104
303.489644
301.4817383
299.117284
303.1144399
305.5507314
310.7358568
306.9549019
306.6700806
311.3119296
305.3496768
292.4721553
276.841003
282.6173292
293.4425974
291.6222389
296.2746029
299.030439
296.6735824
296.7687966
297.5673357
294.8125364
297.1524105
289.2691412
294.6349858
299.1363477
295.5309866
295.3405734
295.9458802
299.8535022
297.871569
296.5039396
309.8659382
304.3936645
299.2016414
296.5395587
296.4892018
293.0298856
308.7348629
302.5401683
296.2534657
291.128511
289.150232
287.1603792
283.7720264
296.8370609
299.0130339
301.1810525
298.8675027
301.3602477
291.888067
300.9611647
306.4045256
309.6332757
308.2442545
313.5994057
307.5863424
291.8662217
290.7824037
301.4354526
306.6541383
301.5133466
303.7671783
305.6987004
307.4975545
302.2256928
305.8412694
302.7816109
312.1032762
312.0551567
314.791864
318.3462745
310.1703142
298.9503415
295.0864022
281.4547917
293.022988
297.5310287
300.7519535
294.6309471
285.1228809
288.6169395
287.9238682
293.7576063
302.062878
293.4723707
309.3194407
303.4229801
299.5749106
296.8710924
303.5202238
313.3498093
308.806171
308.2226369
297.2648124
301.5437726
292.4237317
296.0083659
298.9881911
297.5144354
304.449833
301.4583868
300.7483656
291.6020214
283.765215
296.8649134
302.7950484
313.178174
325.199165
317.1246697
312.1117385
298.6863398
295.6885111
301.138191
302.5844006
297.7428748
302.2349422
296.853429
304.7241513
307.4507824
313.2890922
311.7675832
309.6972573
290.6865355
290.3029569
301.5223883
294.5799036
297.5108251
301.1250312
310.7164615
308.3792532
313.8947629
304.6415249
301.749496
310.6709735
320.493892
307.3614199
309.5850561
298.7395446
298.6691093
299.6374975
307.9924686
311.9181975
313.0788582
310.7078424
291.374961
289.1286149
286.7100386
282.6457023
288.2375653
297.964125
305.8357355
296.8271027
291.6142983
294.1456455
295.5769878
315.0982984
307.7183278
306.1394802
296.8274309
287.6651695
299.9410559
310.2761597
315.3652334
310.6853058
299.5068254
304.0000642
311.8241198
306.2167284
302.8513839
302.6133601
302.3425222
304.5887173
311.0613038
314.6452863
306.030755
284.598451
287.9109967
294.1748087
293.41486
286.4670313
283.9600273
288.6526214
300.827477
293.0222685
297.851032
307.9792838
301.5165798
303.6734794
299.3704697
286.0553147
290.2854662
282.8321144
286.3015659
285.7282282
285.2160983
292.4991265
280.161303
285.1257545
284.5245855
294.9237408
305.635104
295.9703295
290.5929652
301.039441
277.6099096
280.1023209
288.5162536
283.5160689
291.2533853
291.88954
286.224858
288.5187134
289.2981443
295.8718513
293.4225787
292.0897252
292.3609427
311.0972531
305.6572496
307.9706087
303.7124628
295.435901
295.7821734
288.0317527
290.9691492
292.7937152
290.9128034
302.0625885
302.2823728
298.0987412
302.499288
294.9867398
298.0658919
293.3926205
299.1391279
296.2092238
298.5519143
306.5272627
303.8243467
304.3941003
312.4538873
303.3468484
306.9292048
296.6521387
308.9655433
318.9920984
320.5704922
317.8568133
305.9441772
302.0202801
296.5688904
306.6739304
313.2959393
306.7894704
302.6714631
304.3869188
301.6279219
297.1781023
298.5629496
298.6776748
309.0002854
308.3428232
310.4263056
312.8162505
306.1024972
304.4207867
291.7751555
293.7292115
298.9410997
306.5582618
310.6571587
295.9722846
288.9316365
297.4915225
295.309143
293.025174
295.7539805
284.8862386
284.4081572
294.1954805
295.3605773
303.4633847
294.754115
294.5054949
290.3258863
296.5316062
297.6546601
292.0718833
293.8246484
286.5494611
293.3680403
298.742963
302.7961945
292.6793358
288.9608534
285.6948629
283.0851392
287.3441818
285.5576088
278.7821495
275.9557445
274.7301377
285.8664017
285.4213314
296.0312669
294.7396176
294.6084342
302.372946
300.0036467
318.2437657
318.4110468
317.8440495
303.4025804
301.7751511
293.4271164
293.2748983
293.5637171
305.825327
300.0960593
304.4100488
304.1095969
313.5733802
300.8559882
304.5364869
277.4213639
292.6567734
292.9660146
297.6521935
296.7113002
287.43706
286.3888401
300.9261451
300.719965
295.5164533
304.2108269
297.6675728
300.1621233
293.8033795
293.7566474
292.1938397
286.2896225
289.7566196
282.306414
276.0646287
288.8231644
279.1101951
279.9938057
284.7309376
282.9942442
295.2808101
290.6821419
293.1836933
287.0887996
292.9787996
295.9068323
297.7488102
295.978087
294.7588676
294.2783604
293.7844684
290.3246816
288.6805427
295.7803855
296.7903093
287.1689086
289.5522387
289.532078
292.2016493
292.4030378
295.3182518
284.5251256
287.1101914
291.3783279
298.0143241
289.6196965
286.3370785
277.9436165
276.7829611
280.185042
289.3797773
299.6863926
302.0076132
297.3577838
295.7111627
311.0265714
302.6295545
287.578787
283.0232617
279.2130952
275.1762036
269.0934486
283.729806
287.9168349
293.1171459
306.0398775
314.0659216
315.5622715
309.101387
296.8341347
300.927149
297.779014
295.1708077
294.1304947
297.8297341
291.830837
287.6525134
290.2142904
287.9474753
298.7175137
302.6846202
307.768506
310.4454597
303.7010899
308.4435505
303.6036195
294.4864566
285.6631659
281.6382524
296.3814675
287.3962873
295.2499719
296.8745545
296.2159204
293.1778479
302.9010804
295.3179583
302.0873441
301.447023
309.9257833
311.9022321
306.5845973
300.7788518
304.7600734
304.9212096
304.3910958
298.5236869
302.4869864
323.8919419
322.9202793
326.0522713
310.486673
290.9748977
307.6428286
306.5792454
304.6240909
298.2682366
294.3034576
285.1303902
291.7559905
300.1251461
303.2912044
306.019191
292.4838348
291.3211701
299.2369785
307.2295964
305.7532364
293.2219062
298.6980159
306.1330003
314.9973642
320.1773588
319.661548
306.890431
295.8862582
290.0943501
298.2876526
296.5164697
297.8210674
282.8824576
284.9630315
284.3102109
285.8499085
284.6185169
283.3184108
289.284315
296.8036111
302.7460281
303.8000694
309.4320476
302.4812886
301.5291107
298.1699947
300.1250691
295.6588025
298.969211
290.8081059
303.6039046
295.1712417
297.1239222
298.1744622
296.8068737
290.8493926
296.1026639
294.8500769
302.1051388
295.2670948
282.2627866
279.7474096
282.8288658
277.0441511
279.2490293
289.7292357
297.973825
289.0975073
290.8517358
297.5615082
301.7901498
316.4903119
319.8350485
319.2527971
317.0807688
306.185522
305.9711296
299.7082619
296.5672342
298.8285513
299.085643
301.8282906
297.6966622
296.8085824
303.4799383
302.1105872
297.6727206
302.5315273
289.4497046
294.7210032
299.6331691
292.583448
291.739586
295.0629653
305.1030747
312.9268856
311.0110186
320.8932766
310.6126413
309.1302496
298.2968794
304.358937
305.3242099
290.8389073
280.5702677
282.7082463
284.0770016
309.0968562
304.4869002
300.0110193
293.1594909
309.1993805
308.0633583
306.5255034
308.1693535
305.0023638
301.827081
305.3096938
304.0642155
309.0946634
312.7686318
302.4796919
291.8461638
289.3799859
293.0064839
300.8148942
302.9512084
314.0913057
308.738936
301.1330323
296.7502628
302.3540477
306.3799524
316.8700646
317.6184175
314.6176631
312.4173348
312.6496147
307.0585465
297.1605199
302.6277415
300.8803147
300.3574727
290.9784477
292.6609653
296.6591859
308.6698213
314.7453668
308.6529747
308.3480326
308.1903673
294.8671356
289.5624822
294.8385286
302.3253311
313.3251881
302.3082177
317.0203508
313.7702136
317.6489621
328.0478286
327.7015024
307.4132885
316.0310815
321.1393118
320.1841752
317.7368443
308.3112912
302.7375489
299.4347843
300.3376236
294.0714652
300.7969645
297.2367103
293.9750563
311.5661802
319.8438033
323.7491568
321.427325
310.3898761
316.6287529
310.1670827
308.9008967
310.3522733
305.704283
314.6365931
307.2242184
304.9024879
309.3659944
319.2023928
317.2782349
313.9638057
298.6183859
290.9864398
301.4047356
293.5945929
297.4225534
293.6296321
294.1019245
289.3361253
288.8170212
297.3388972
314.9096523
311.9171059
304.0640178
308.1880102
306.4919997
310.6712159
301.6294963
297.9144705
296.270544
298.4141695
303.1911364
294.2785892
291.0855019
292.6316489
290.1519184
297.6221704
289.4944583
294.6353627
307.3226403
306.3411135
289.041207
286.0813786
304.8725044
318.8815002
315.4387591
299.2263902
306.695443
313.4591589
313.5380409
316.9923735
309.5979571
304.7991089
297.163782
295.5488687
294.905124
299.5011266
294.7889412
301.5549627
306.4270595
302.5351409
305.3909326
307.9485808
310.7381793
304.9422986
294.3609588
290.1192731
295.2387333
300.778875
307.5884878
294.887059
286.2676184
286.4842717
285.3831615
282.1248455
285.4692615
296.8974659
301.5300087
297.4930275
306.8226148
301.4867607
304.8051284
318.3722001
297.7917651
303.1347729
296.7426425
291.502892
286.3164315
291.4478626
277.0051857
286.3402257
290.812876
294.8731489
289.5372757
296.7277715
290.7847301
286.7182305
294.70614
292.8237995
296.6143867
301.3541832
300.8608391
297.2509345
299.3257649
298.4042715
293.6665019
297.5141224
294.361732
291.383796
295.9464312
286.5538164
290.4321551
282.5197069
280.5697608
280.0154608
275.1931699
275.0832132
278.5555883
278.7917568
291.9906401
300.3222727
302.7537694
305.3850316
310.4299202
306.0630784
298.1648672
316.288172
323.8074731
319.8085204
315.112046
300.7396894
299.9891362
301.187105
293.0353862
300.2953533
292.5632201
290.1640706
294.0976314
297.2440318
297.0165579
295.6163843
292.3407806
304.3336656
301.2481725
297.3187747
297.2181991
309.3618805
300.906401
291.4344629
291.5511088
297.3075953
294.6564913
290.2851435
287.5654767
291.5313231
297.1890516
295.4390316
298.4417378
296.691028
285.6994767
295.7718291
296.3020641
295.8363601
297.7076565
297.4093034
307.072607
283.6613779
284.2460558
288.3766209
279.1574753
280.9124429
288.9620657
292.9400509
292.6015906
292.4215237
282.8308527
281.2453989
279.2956817
286.8239286
296.1664587
297.4680309
292.9662483
293.8994519
293.20717
286.9523117
292.046302
298.1249617
308.6920669
312.8532502
315.1030931
306.2730264
298.7602127
302.3226554
283.6659817
285.7612571
291.2787204
298.6378771
292.2588376
295.6805623
289.8974047
288.3865617
295.4631669
289.1565913
288.4127089
282.1666822
292.0428687
308.2275619
308.4577751
304.6790131
298.5122509
301.5318933
311.7322369
304.4483127
300.7099881
319.3644394
318.0337556
301.5015894
299.1346377