/*--------------------------------*- C++ -*----------------------------------*\
| =========                 |                                                 |
| \\      /  F ield         | OpenFOAM: The Open Source CFD Toolbox           |
|  \\    /   O peration     | Version:  2.4.0-MNF                             |
|   \\  /    A nd           | Web:      www.OpenFOAM.org                      |
|    \\/     M anipulation  |                                                 |
\*---------------------------------------------------------------------------*/
FoamFile
{
    version     2.0;
    format      ascii;
    class       volScalarField;
    location    "0.0009";
    object      overallT_mixture;
}
// * * * * * * * * * * * * * * * * * * * * * * * * * * * * * * * * * * * * * //

dimensions      [0 0 0 1 0 0 0];

internalField   nonuniform List<scalar> 
5120
(
317.9798306
307.1897973
292.0279229
293.3861465
303.1704882
298.7613775
301.7302142
303.6007186
294.3857148
292.8907751
298.468227
303.736406
303.2627166
307.1616672
297.0892678
298.9531801
298.3975182
300.4315886
306.9800418
314.7974449
293.9312631
295.9622482
300.5499388
299.0793296
290.1955757
289.251625
286.7542324
297.9535229
307.295518
307.2816088
305.5973411
298.5897612
304.5161211
297.6258656
301.1437389
302.5895815
302.468331
306.1496539
304.5172857
299.0654191
310.9202533
309.1066691
301.854895
296.750375
289.0061707
292.6987273
295.6734943
299.8033796
298.5640076
299.6057707
297.921466
297.7626797
291.9935834
291.3538219
297.62984
305.2864489
298.5651415
293.6362959
292.8825961
301.0280527
298.3691813
302.8861236
314.3210455
302.7854358
306.3106726
303.7584853
312.3663395
303.4359337
303.536804
306.0075967
301.1493453
299.1361643
301.0936554
305.9363407
298.9547429
297.287922
299.5947769
295.7445922
296.6669859
295.1388378
311.4117789
302.9355635
287.5632786
291.2007442
291.1942287
303.783185
306.7605264
311.8424123
313.401337
301.9472852
301.3074184
303.7322332
298.1676812
294.4248163
295.9406211
304.0250584
309.8282025
319.1712477
311.9780109
311.1369857
285.8398816
282.1730098
293.5469952
295.8811643
295.7060006
299.0188602
297.3185038
308.4212617
308.375838
308.8831295
300.3749786
301.3692526
303.2426712
299.5752505
296.7602216
295.129575
293.3553713
287.9341492
289.1101456
280.4993037
303.9454986
299.531927
308.3273916
310.0132501
306.5590204
303.0763121
294.3129255
288.7661738
287.8773626
287.5241959
292.4816053
295.8461406
296.0232242
297.4032364
286.6744301
284.3332383
296.1450854
294.91999
297.9766563
301.6123088
301.2069422
304.5073653
307.2225106
300.6248055
307.683654
299.9676634
302.6357441
286.0920678
284.1168604
286.8079886
288.5210659
292.7173003
296.9780249
300.2133125
300.7315706
308.2656061
298.1649655
293.9086412
297.0530373
297.43538
301.3222342
299.7251201
296.1246899
298.4082917
298.2694214
296.531161
299.8192197
294.8545837
293.2793921
299.0700827
302.5282002
307.7333336
306.9676457
306.5592406
304.5870514
305.4482153
304.5336135
305.821193
302.919211
301.3003553
306.8802787
299.0781143
303.6108816
302.3162198
288.9080945
293.3006319
291.903372
290.2265361
295.8427421
301.8415422
300.462686
293.9734984
297.660949
301.3113363
298.7052633
303.3954185
303.7164163
307.3179193
309.8714334
308.3492803
292.037506
297.2599007
293.7025686
289.3629859
293.9124986
294.9451098
297.5091435
299.3901977
298.0066857
299.2909482
305.7737956
304.3049983
289.617118
283.9103069
294.3112403
287.4495139
287.6022388
291.8042057
294.5998701
299.4003289
311.9469606
297.1980116
299.2524646
301.4017003
305.2451897
301.1378529
298.2070902
299.6698797
297.7216343
303.9115769
298.8032795
304.775964
309.7528312
300.5788273
308.0499277
306.4297885
302.7145499
314.9954254
308.0593886
312.3723815
295.8960886
299.3716133
296.2672097
298.898643
308.8959513
314.6085736
301.4594652
298.9381066
296.6336682
297.8617904
299.0707061
293.4496094
288.4173053
295.5530683
299.3095635
301.3399712
299.7226058
298.6838442
305.2783381
303.2588158
293.4180209
289.440358
300.084484
303.5644566
308.9911447
311.3771966
307.8901438
299.1749887
293.4162453
294.7211245
307.5725136
291.8373875
296.3927289
302.6566668
299.3919208
298.1360826
296.7396886
295.4797261
296.3613776
297.6587079
294.556212
285.8268192
292.0518358
298.6738768
305.7607321
303.7697832
288.4140673
300.1133673
306.7863314
303.308057
313.0593848
315.6504682
315.6721582
309.2811484
301.4798934
312.8013996
314.6830409
296.9326384
288.6392539
294.7625593
305.7521263
304.8083785
307.587381
306.9556067
305.2037618
311.3243128
306.5885228
311.6267951
318.5168755
317.5597727
323.1064179
318.3312674
317.590579
318.4542382
322.4136025
306.4251213
295.0559217
284.7808279
300.6766487
302.256389
308.1215566
305.0007398
305.4789825
299.5246587
300.1892925
293.9200118
288.7227758
289.9311911
297.3813616
300.9298475
300.3042753
299.4029235
296.767051
302.0088722
301.6025608
307.2697478
311.1684375
308.7347473
302.7157995
310.511955
302.540903
313.1617204
321.2225397
317.8253095
317.759803
315.9590905
309.0641822
307.5351205
304.504416
306.7360706
302.1199198
302.6715333
299.4027498
301.8114439
304.6288593
306.8923144
314.209045
314.0497706
301.4251087
297.5452791
292.4228996
285.8487375
274.9957167
294.2280885
294.4221696
297.9838919
293.7433187
297.4776161
294.357898
296.2496027
302.1647815
304.5004277
316.4422458
311.2694947
313.0312734
311.3409147
308.2876952
314.3153098
307.4375674
299.1037249
293.306746
298.8054176
301.74522
305.468045
291.1976502
294.9764756
292.5679325
301.9752135
305.3578848
307.9545319
314.7113794
309.7455159
303.8032635
311.2896768
303.1283925
300.3881226
295.8148911
292.1326006
303.3517879
300.5123824
287.1141403
286.9983501
293.4305235
295.2274063
299.1208679
292.4258028
283.4513001
275.5563984
277.6005684
290.1832806
287.732275
308.216942
303.6013612
303.8707955
306.4605816
305.425514
298.8660262
296.4930144
293.6187359
289.4159058
316.7362121
308.7506304
313.4505085
300.7332528
301.9908942
305.1853498
310.8204141
305.9815835
296.0665734
293.2115254
299.5323459
299.9876699
312.4827062
309.2754527
310.8844222
307.2658752
306.502573
309.2600902
319.7836597
319.3476082
306.6973396
309.8422422
295.2580437
305.6822146
293.278229
294.1497865
304.483397
299.6312743
300.4096565
293.897127
293.2507515
294.1699899
285.6460757
287.9330141
288.180334
297.302838
300.8384859
307.0438449
313.8320679
313.9815199
290.9741419
286.2057519
285.7014211
298.5138821
298.7217536
299.7920317
288.2516
300.0676452
298.1425751
301.8008392
294.6688573
292.7504498
289.3102053
287.1617072
289.2856455
290.9711193
302.446078
303.7909137
297.0818703
297.8927914
293.9226876
301.1803002
299.524351
295.761522
287.8787901
288.0968343
290.9470989
302.1515587
311.8808641
310.0221872
307.4781964
295.8220715
294.8425446
297.8770109
294.3792886
294.5297347
305.1264657
306.9489846
309.588948
299.6300073
312.2356332
305.4552522
307.3591182
310.8158869
314.2508466
305.8765828
296.8427737
294.8068889
288.5453995
293.4926288
291.3429509
299.3082157
302.7573285
305.3157006
308.0572588
307.6803948
306.6304249
309.861666
322.0582131
308.0673651
307.0638016
314.6571602
299.2303221
297.7834537
282.9650967
285.5670428
281.6857697
291.2184374
298.5017049
305.6742204
299.3077319
295.6381739
299.9163832
297.3987635
281.1699454
291.9204776
289.5598199
291.3358355
294.2043402
305.0031009
297.4708734
296.0039292
296.6467803
292.8701913
299.7410214
298.1996525
300.9294208
304.119852
304.6851647
313.3319324
307.2356443
308.6874539
304.1628118
304.4666693
297.11179
300.6866117
293.4341161
293.0444268
289.6293052
293.7402901
297.1811649
295.3029368
295.84842
301.338766
303.487853
295.824172
301.8565119
302.0435824
301.5655588
300.1591827
312.853341
298.5295297
297.2045715
295.0450075
289.3779467
285.43174
282.8733924
287.2462137
289.0717178
303.5713529
299.68913
305.7128062
308.0521772
309.6537268
293.1372778
295.7661598
289.5060615
301.1658056
306.6456762
305.7792293
287.9904499
295.2673879
295.6708256
292.5764919
293.8620266
292.0501146
284.976172
282.0401039
281.9564759
282.122586
285.3749168
304.6878903
299.0877385
292.3322445
288.6524023
299.7078341
314.8061699
315.9683538
298.4964927
306.5465045
299.4513984
291.1825372
289.9385538
299.6010055
297.2438816
287.6269462
297.7335065
300.8177294
298.2383355
287.2377516
297.1635611
296.9167051
301.6019962
309.1658977
312.1875619
301.8691049
291.4232782
300.6390703
302.9845289
297.1213085
295.7613407
301.4283234
308.0964049
298.722994
310.9984297
306.5992739
300.522952
296.5870282
302.1627242
304.8176066
306.6149007
303.6320022
299.5356397
293.5220428
290.6691907
287.0892031
302.4671138
313.3921043
295.1198588
285.559171
287.6876775
289.993238
297.8574936
299.0905752
297.1742285
305.388546
316.8999744
310.0015003
306.0134309
303.6416721
316.8583845
311.1247633
315.0611583
312.1033569
314.1109613
317.3261926
310.8397434
310.2701993
317.2338511
312.8352975
307.7573459
301.5148578
301.4315492
310.1784501
309.7181689
320.0828989
318.8001521
323.7542975
317.5014802
317.4808508
295.3548312
293.8824332
291.0671346
290.3610231
294.7443009
294.4477618
296.390582
294.2958805
286.7394341
291.5134883
293.0964672
305.3746474
301.0720954
301.4459395
308.6857302
311.6037245
306.343791
307.9072819
301.6154721
296.5814805
292.9565714
297.0178022
309.6030743
300.5662258
305.1703142
306.680841
292.5678184
287.9442786
289.6167424
299.9894796
289.8871781
292.1838278
293.7665597
287.5027807
289.8378852
286.6722023
291.0572723
279.2536173
274.4177434
285.2127596
296.2269574
301.3033286
293.8062579
303.9127315
308.6619765
314.6972128
305.518535
298.2211167
304.7918969
303.0941849
301.2920324
301.8130246
300.4926753
298.4524051
300.7923258
305.0395265
303.1506479
295.8753289
301.0420241
294.5551905
313.2802155
311.160248
304.1685747
302.8369246
301.9913383
302.6036919
298.9534486
302.656717
306.7002334
306.7351367
307.083214
317.1207048
305.3496034
306.0927147
301.1641024
297.0975634
300.3414963
303.596787
304.5622897
315.3980705
275.0825772
289.4776873
294.1495206
300.067284
308.1359296
304.3188757
300.9837649
304.1970838
304.9182317
301.9400198
299.8811941
297.3367942
294.5148526
293.2580345
295.9230394
293.5076869
292.6058601
285.4546544
280.9818038
275.8404778
304.5091666
298.2331059
302.0389299
292.1107503
302.8702109
293.8547103
290.0891266
299.5173337
296.529597
287.5286058
285.2811558
287.7276006
288.7233573
295.206865
298.6502378
296.266589
296.1672548
290.4643579
300.4374039
299.3398924
299.0460345
297.6249101
289.5496637
286.24457
292.5186326
296.9481851
285.8301978
289.6452095
300.3760066
308.461361
306.8839033
302.322152
299.8322883
302.8932031
297.0545295
296.8027001
300.318683
295.4974292
288.5099184
297.2002135
292.7071812
282.8497875
292.4405417
290.4728491
290.2738442
287.5821564
291.8591549
299.3564139
282.9318893
275.2180144
282.9100851
287.1566925
297.592655
305.8463743
304.7528477
302.7027949
305.8189527
308.5130685
302.5886995
297.5337901
291.3818724
294.2656012
289.6730712
287.5569339
287.1119331
297.1559319
294.9418412
302.639127
305.2606435
304.1602844
304.7573928
305.9191272
298.3710041
303.0587335
302.4535338
289.9637679
295.6003975
296.6337159
292.9576979
291.2416595
301.1465099
298.1911212
299.8411419
297.4821171
299.8536756
298.954736
296.133918
300.6506126
305.5431315
300.0587711
301.4102811
308.9790009
311.6819029
311.170607
302.911207
297.8706115
301.3200526
290.8996794
305.808545
300.3366601
299.0361499
298.254098
303.0215981
301.5162773
307.4683559
307.9590007
304.9665578
298.3369457
290.2366992
301.1861155
295.3301862
291.3728743
299.6929314
291.4975618
298.4434771
302.0796781
302.3987754
297.4684595
293.1678383
291.983317
298.0122922
305.7426699
305.1845503
307.4382697
304.2740062
304.9015174
305.8375111
295.0781173
295.1518758
294.2546176
292.0486567
286.5132194
287.469597
298.3111327
296.03633
300.3431358
306.1832684
303.2347674
308.9249811
310.9458511
286.1614652
281.150437
273.9651004
283.067298
284.6320988
294.3626453
298.3808322
295.0107237
305.3470222
295.5214038
304.5255989
311.16374
317.8598078
305.2390345
302.9898398
295.5702857
287.3276777
285.8059562
285.212117
288.9799442
300.5310818
301.4919516
302.9584468
291.0840356
295.5285835
301.4267414
297.8531177
296.931221
303.1889954
309.1063271
313.4304011
305.2437466
299.6033751
310.2994256
296.0171136
303.116777
300.9332481
306.7256816
300.8999536
305.8032856
291.6910011
288.0136585
281.2684093
290.565469
298.0667964
299.8558492
303.9224319
286.2876218
282.5325541
297.6853026
303.242893
295.4841286
292.528994
295.3707699
295.6689813
295.2379973
294.6167745
297.3878336
301.9317891
300.95779
298.6116638
299.6739098
295.4919999
304.8899767
299.8243029
299.7750871
307.4166195
306.414003
307.6562066
306.3148203
296.8011352
300.7348915
303.6865912
305.1038179
299.3750314
292.3531464
285.8905918
288.9251716
289.2737874
290.416587
307.3742293
314.3998639
312.7835435
306.0228144
306.2309401
302.2411619
299.7384315
298.3059121
303.7588531
305.1293337
309.6051486
306.7057208
305.1818985
312.9205466
311.5821056
301.6119844
305.2856649
309.6092002
308.2186071
298.99513
307.4142529
306.2080473
299.9552499
299.6470118
301.4204895
296.2541129
302.7650283
308.4016669
321.4938891
311.3140975
312.8460983
311.4067284
302.0897586
299.9302064
293.2328652
287.4951128
287.3243853
298.7822576
306.6739499
304.9832179
297.2448233
294.972697
288.5182876
283.5905034
285.8246412
297.6260458
308.9720287
320.2316969
312.5011442
308.0102982
297.7146019
287.2604973
298.0919784
295.0435357
289.7913716
277.9602935
295.3830894
292.2775674
294.8554435
301.5572877
283.1516009
285.3898011
290.9368849
290.3500703
294.327819
300.7186905
308.7157839
313.3702309
309.8484162
305.0113476
298.8658554
300.4959285
301.8227881
295.311885
296.906778
293.2594183
292.6467198
292.1616398
279.2950802
284.0457106
310.7735619
311.1786447
302.5302739
316.7151659
298.1994737
292.678092
299.6887559
304.5927579
299.3498706
312.8042272
309.3621388
296.98122
292.8472561
298.4049278
301.2587658
299.7963446
312.6220859
304.1918088
306.0055258
305.4948257
309.7118498
300.0940621
297.7548705
298.9030788
299.0682104
315.3137163
314.2490416
309.403876
305.3743638
303.3364611
299.7086359
308.6709868
311.1660223
310.6928203
305.6476342
301.2887853
300.2453404
300.1757315
305.0903238
306.8711443
296.5131646
302.1295834
304.9905007
310.1495543
312.4870385
314.4851245
314.1924456
308.8801525
313.314388
310.7316203
301.3626355
307.0804488
302.6523046
306.2065592
297.5609056
293.1014889
297.7370846
307.2982011
300.1984622
293.3547977
297.2263162
290.3632831
296.2541501
300.9450113
310.2105917
297.3076513
295.9810604
291.4990715
284.6367218
296.2710519
299.1854976
298.5497432
296.3503583
291.1981467
303.958564
308.9020912
311.5879843
303.1877296
296.099777
301.3676482
290.3169078
294.1984583
294.8526889
295.4869472
292.1164791
297.5776225
301.7477462
296.8608118
293.703978
295.4685062
299.739779
306.1958435
301.3214546
296.4500567
298.9508599
302.6924591
302.4974303
301.6895809
295.7096611
290.1326257
288.4705423
291.4627061
289.8997368
278.6014367
279.901364
278.2421407
290.2461662
294.908038
301.5921391
297.8880064
299.4654018
294.4825868
297.113603
304.4359945
297.4912469
306.4668703
298.798364
294.9347659
286.8167917
286.8972685
289.9245231
288.776569
286.8932571
284.3909067
291.3648994
284.07052
290.7654285
299.1639735
295.5115865
285.8296383
292.1129942
297.2631067
282.3038601
292.3930976
298.3137642
293.6051783
288.0182673
294.2782692
299.1834253
306.3876722
298.2359455
305.8900433
301.8657761
296.1556731
296.1290232
291.6679096
297.9515924
295.6958
292.8763406
297.3940043
303.0068494
310.1976405
311.9251802
292.0112201
288.5226115
281.8143095
290.4330576
299.3201159
291.577422
290.7930335
295.6106544
305.3490615
300.7408446
292.4035925
307.0248518
291.9477156
282.6539591
288.7774952
295.5194322
304.3257062
298.6115981
283.5171298
283.5261162
290.4071941
288.955563
293.592506
299.7116277
298.3881169
298.8625932
303.2059854
297.9040959
309.310745
303.6703714
301.1273699
305.8700483
306.4358623
308.176251
306.2758888
299.8497369
288.5246615
289.1507894
288.3426079
293.7182865
294.0451471
291.4498475
291.8538215
291.7396974
297.4678171
302.8960329
303.314251
286.8731129
289.9905738
295.8697351
292.8353728
290.7583708
289.3252638
295.467189
296.6464363
307.7768212
300.7293075
295.2263579
297.7774229
291.4304857
284.0659379
288.6549168
288.1102384
288.9141619
284.7884715
295.367081
298.466374
295.3209393
298.5180619
304.722748
299.4178934
298.7104774
293.7306308
299.8639822
296.5694353
284.2080911
280.3426241
291.2743762
298.9098026
301.9294182
294.4439513
301.4799187
299.6955981
306.4762193
317.5210831
306.7610136
295.353646
305.4070787
301.8124465
299.612186
302.0025081
294.8391087
297.6350214
306.7189896
305.8549438
309.5174092
300.7766672
303.0604331
298.7525594
301.7785727
299.7614851
294.6020776
301.9996782
289.2344039
291.6634892
299.4395994
307.7975869
300.3636722
305.9701591
312.4704148
313.8767286
301.4418977
303.1945574
299.0855689
301.5726169
304.8230501
320.3664234
313.7948561
322.2716509
318.4281939
306.4967533
305.1158997
303.4250671
303.279441
303.9439467
304.4976905
311.2260842
312.5490587
315.5363651
318.3997915
315.4813241
317.5713943
310.2520399
297.2393407
292.4050332
295.9900232
298.1387356
306.4704144
295.8285323
289.0534631
294.1021131
303.9128241
303.2343733
309.2843235
312.6591402
314.2785068
307.828566
295.9232914
298.1265887
290.2000971
298.0548107
296.1245869
296.3547072
305.4290365
300.6178555
300.1080698
305.3151335
295.966333
294.7429253
292.8514457
288.7423268
295.3359629
290.9780616
292.3137452
285.3953294
290.2783233
290.8137204
290.2373144
297.4213039
296.5077434
291.5771502
306.6971443
297.7855875
309.2217632
321.0914818
315.4814578
305.0680119
307.1276974
302.7457139
301.708295
297.8747013
291.1580092
301.1551124
296.6015033
308.5688331
317.7515484
296.8918572
318.7930799
320.4912641
315.409565
315.8485289
310.2678469
313.1273802
300.1859345
301.5330147
306.9809956
309.8840286
302.5229857
312.8308738
312.7508964
309.81249
306.5453166
291.3330823
288.4972174
292.8851343
289.7601683
306.5898149
302.5344967
303.0102191
295.1664143
291.9836929
292.2950856
291.0256614
292.0333583
302.0955468
299.370569
301.8562492
304.0014749
295.0274912
295.4929508
299.3760637
294.5952015
294.1593473
292.8167758
291.8316792
298.3952159
298.8963912
280.2228728
289.9496247
290.4740625
294.1816643
289.851655
294.5172823
298.9666877
298.5637304
301.9072996
286.9606613
291.7814317
305.7686479
300.2117365
302.8629558
312.8426729
306.1793733
301.6615902
294.4266683
292.3893919
283.1405676
303.8625018
296.1815542
299.9597325
307.488134
305.0963688
311.6487695
298.4484611
293.9811908
298.0907568
301.2521534
310.5794463
300.0388137
296.485345
283.5791944
289.4019849
297.6009027
290.6753947
289.3383665
292.2890508
294.7378838
288.2176606
301.8168802
295.767902
305.1980043
311.5342401
303.6301409
300.9161262
306.1025359
301.2325278
303.5565356
300.4397572
308.165869
309.1656233
308.2525728
303.5095001
299.6727689
305.6011707
305.4474935
299.2269543
295.7974576
289.429628
276.6629958
274.869344
276.9402032
275.0462212
287.8442014
291.0498614
303.832505
293.357919
302.277899
299.4607032
295.4859089
289.6323318
288.7438388
285.4209527
297.3581401
295.5781788
293.4358888
294.5731163
285.7769148
290.834628
289.2308372
294.2195365
298.3029589
303.2084813
308.8703927
300.4808879
296.3526423
299.8620726
293.3997744
290.6511052
290.6345622
289.4565411
286.1653242
289.5305472
295.8384826
292.3974712
293.5109225
285.9596327
288.726457
309.4494599
305.816378
309.6314131
314.7915888
314.7425636
301.3815383
298.5064093
288.2351481
285.263256
299.7491359
299.4316226
304.5946493
312.640266
318.441523
318.9852576
313.7766042
305.5765983
311.1734085
309.443944
313.7380758
301.1744603
293.4810985
303.4983091
295.750912
299.5780465
302.4776188
302.9970474
304.5693211
305.8621175
307.8413681
305.7276031
306.9955155
305.5610705
309.30871
307.4960575
310.6094578
304.2182884
289.2139205
286.8020262
303.2920961
296.7017039
290.7349991
296.6021119
295.016082
298.5365909
299.3342103
293.9344007
293.7269749
287.3102606
281.5391485
291.2715096
301.8854655
301.4449143
302.4716346
306.9525348
308.5887396
310.456023
305.9859085
302.3932212
303.3501678
310.625789
310.9765919
306.3402414
305.7746707
306.5126814
301.1189481
291.5793991
277.5156748
280.0235402
290.1043296
289.4566426
294.6736445
297.0347783
297.0919311
300.1677958
303.6104978
298.1119789
300.6153693
292.7679548
298.4703273
305.1581289
302.6126414
304.7132788
305.9178274
306.7576472
305.5457523
298.3942109
308.0919358
304.7883643
300.7452017
296.1425862
299.5097071
300.2380008
303.6039708
297.4562208
293.1076665
293.6633731
290.0562627
290.8498428
291.6506086
293.6522811
297.0036655
296.7376094
296.4727501
305.2670182
292.0150924
302.0799519
300.4545171
300.0869978
297.8493537
308.4661417
303.3214901
291.0810658
297.30683
304.1988802
304.6170056
297.1451653
297.2731501
296.9861087
303.5722949
301.2471709
307.4939242
308.5433492
314.0078184
311.8034836
311.3178815
311.1785228
307.0719116
296.8537453
295.507083
280.3050777
293.3969203
293.430553
296.1897176
292.3167862
286.4164525
290.531335
291.8421908
291.9647537
298.4277017
298.7218626
306.9042175
299.4705256
298.0527746
299.0622968
305.7411781
312.9752376
306.935515
304.807921
295.1602731
300.8181586
294.2844326
297.046421
300.0672224
299.3202445
304.2131728
299.8148234
300.9769382
294.3801107
290.9493911
298.9239514
300.6816106
309.7480672
319.8395918
312.7106017
310.0483341
296.1134181
291.2863229
302.3750721
306.3937712
303.1359753
305.3758792
297.6287513
302.0530569
304.6482501
315.4735572
315.1552978
312.5298306
289.2858218
292.6547626
301.8654946
293.9089322
298.307366
303.7436602
308.5198962
306.1289947
310.9634517
303.8763166
301.3046468
307.5827243
316.0712637
310.4926017
311.3506931
305.4950503
304.7701588
304.0592717
307.6271882
310.7666178
314.0292417
311.1277263
297.2456681
296.7762926
295.5934298
289.4867124
291.9698099
295.8449757
305.2502985
302.1175532
294.7419363
301.9113535
307.0229991
315.7632399
310.3209379
302.7727561
291.5619773
290.3294233
300.9821541
306.675203
315.5790563
309.7037304
307.9834917
303.1956996
308.0026753
305.6664135
305.8884721
302.1873308
304.3306228
301.0479808
312.3821149
311.0275003
300.5040013
283.4783679
285.1387901
293.7943407
294.8901609
293.1530005
296.4971288
307.029141
313.2686395
304.0727091
297.0222727
308.4784789
303.11569
301.6572092
297.2421202
289.3661751
293.951782
287.7895206
284.9356867
283.5554603
283.4240064
288.5088599
281.0185053
286.0295295
287.3005249
296.4702736
298.5435658
288.7896947
287.4384657
293.2579835
288.7330533
290.4203211
292.2160578
287.9894192
293.3041099
294.2832746
290.5671484
288.409061
287.8078485
294.9089721
293.5955909
294.9297431
297.1706004
311.8505868
307.9140987
302.9509603
301.6550185
296.2168349
299.5724999
293.4195171
294.9228747
295.0806208
294.6444567
306.2737697
304.7334259
301.4545553
302.367479
301.0379606
307.8131005
299.4623232
299.7870244
296.662381
297.9184213
307.4741566
305.267467
304.2207046
315.1477903
305.295194
308.2572214
304.1711243
301.6887029
312.1848745
313.926425
313.2385026
304.7537074
300.5678301
300.8051681
307.6675808
309.517383
305.1335946
304.4737166
303.5246462
297.8433168
300.3916489
299.7298194
299.9424274
305.6393705
306.772843
304.367501
304.4245351
306.7164191
303.9534886
295.3600825
295.1510569
302.9483815
314.8666129
312.7197915
302.7194563
296.5043292
301.0718488
300.5612629
300.5705517
304.3829386
294.4354973
294.001935
297.4127465
297.5117037
303.3898921
296.9060816
299.2219099
297.2006373
302.2536161
295.8392818
290.2903946
291.9587067
287.8468772
293.2988102
297.6909855
301.0517731
294.9518556
294.1797299
294.5174908
297.7968811
298.3193751
295.2263822
292.0442124
289.5493295
289.0381527
296.1107869
295.4212391
295.3533772
295.8510802
295.9586619
307.7514913
298.2950353
316.6687787
315.1636686
319.3689885
305.6353612
300.9713544
296.1162499
290.398516
291.1354475
300.5372857
299.0286073
302.217966
307.0978653
318.6561176
309.2682864
303.9940558
279.40606
295.480578
298.6043877
301.5514427
303.8512663
292.7877061
289.2050159
298.9061493
302.7190405
298.9649206
306.3334945
298.7477056
297.8212904
290.8964191
291.8299803
293.2236031
290.9514547
291.9967
283.8587036
282.4896747
295.3662741
285.9138872
290.0518992
289.3166923
292.1825759
304.9467394
305.8764078
302.2374885
296.4534668
297.9499478
302.0049788
302.4555192
301.0319336
297.2133121
295.3873173
292.9559745
294.2217083
292.0813972
296.3805312
297.9246642
292.2008483
293.652715
288.9288449
290.4843853
295.9483759
293.5155495
283.0737948
282.4777097
290.0413893
298.2406427
289.3177674
286.0053816
276.6913065
278.8459265
280.8681704
290.7583072
299.9005687
306.7077813
301.4296149
296.3258053
307.436978
300.9143824
287.8734056
285.4675799
282.3776234
283.5457024
279.527369
293.9667152
294.1725842
299.1458865
310.2102402
314.1219118
318.2430517
312.4664369
305.3744495
301.9501235
298.4235196
294.7138425
295.8291013
300.756186
294.7765605
293.4467355
296.2856589
291.024146
298.6985885
302.9200819
306.1423476
304.4250721
300.4148688
304.0631657
300.6295124
290.5657842
285.3419212
278.886422
294.607595
287.8610739
289.7095607
293.341897
295.3111733
294.9878635
299.4641567
294.1913523
294.2192438
290.677562
301.3704922
307.0407853
305.6176308
304.5390813
309.1370644
306.700115
303.3732375
298.4711163
304.7926154
320.4320567
317.7436646
319.6913843
312.223311
294.1919256
310.2349619
305.72106
302.1563265
296.9447631
296.1833566
290.513231
296.6933584
300.9576552
306.8987021
305.0684482
292.2233961
289.2964809
293.898851
303.9548853
305.5489703
300.9179587
302.9619028
310.5465337
313.5949089
316.4169006
311.4492055
299.9163665
296.633669
290.2630321
297.7200074
292.0961035
294.1822049
281.171825
279.6300912
279.9535613
280.3827599
281.2789672
279.1742253
289.2528487
294.9073992
301.1012553
299.321306
298.2669891
298.4289816
301.4315874
298.6935036
302.7431605
297.3292355
298.6289371
294.4867134
302.0374718
295.8326207
301.6822187
295.9768592
295.8891154
295.7249245
303.6820527
301.9667554
307.8886919
302.5710306
289.0089642
284.3196829
288.6358497
282.4322752
280.7368845
290.5885535
300.5494505
281.9543145
286.8343327
294.6962817
301.2511586
314.4094064
314.9300245
315.5548734
313.514033
306.8124697
304.470556
299.7213789
293.8926895
293.7563852
296.0732626
299.1705085
291.7446415
294.1945635
297.3470305
296.0789089
293.9325877
308.4235321
294.7073672
302.9802145
307.9635224
296.8421971
289.5578911
293.6299306
302.1590643
309.1793022
306.3318128
315.7737925
308.0237254
305.2540875
298.6949987
307.1014166
307.0428374
294.402684
286.9456107
291.035416
293.4430545
310.1235309
305.844132
303.9079389
294.6578225
310.8265484
308.0759201
305.22485
303.3383056
303.6634142
304.1820369
304.5061828
304.9267127
308.4848511
313.3480463
309.5865215
302.4011377
300.3564454
297.8637293
301.6075035
305.5393683
312.6536458
314.8982041
308.4344129
300.7382528
305.0710722
306.9710631
317.8294529
321.6031104
318.6342884
315.9037054
311.9938393
305.7090681
294.6753166
296.4635333
294.821752
295.8783588
292.8407372
296.7106016
302.4125127
308.5851367
314.8608511
307.267934
307.6248887
311.0109917
298.7998791
294.2042595
298.6056544
303.2513168
313.3910065
305.1406697
315.407345
317.1576129
322.7267206
327.4602595
326.5546965
311.4701719
316.961616
322.283372
328.9905495
322.2083282
310.1746073
310.7634192
310.2915818
308.1123959
303.1021911
306.2666475
300.3475197
303.7552372
321.2479473
326.6592347
324.4408427
321.3055759
313.8711337
320.7980275
313.687709
314.3063114
316.948964
308.0874493
309.6652089
308.4320516
305.3646935
310.1849691
316.4206929
318.4831154
312.3842479
301.2085073
293.8135459
306.1420642
300.1406107
302.0811311
295.5470877
297.3827028
289.8634664
288.4003957
296.7647586
309.0244354
305.1419248
306.2132641
304.8667932
304.310236
308.8296077
303.0392711
301.4748651
296.8898053
303.2035651
306.76312
295.856955
297.8908123
301.7682659
295.7183865
298.9296756
293.0024893
299.1900867
314.7173759
314.6461205
296.3237186
290.2787156
305.4225738
320.0707418
316.5337469
301.6002686
309.9796854
313.3064538
311.6927496
312.7721201
306.621017
305.3709574
298.7924769
294.408403
293.0622168
300.7980682
298.1809784
306.058497
306.4171465
302.4812012
305.4722075
303.1928915
306.4118797
303.8096884
297.4824554
295.2776697
292.2689385
296.8126984
305.6585091
295.1909589
284.9586897
288.1554975
289.2783264
288.6938663
290.9033949
293.4679657
292.3327245
294.9322062
305.1850905
298.42078
306.0385954
316.7658968
297.7928565
304.6679478
303.6995532
287.4262253
286.0227831
293.9246844
279.7518846
280.5493466
284.8898381
294.0849811
292.4130037
295.2716253
292.1831591
295.3217789
297.9941414
296.3499502
297.8630248
302.9773019
297.4208355
296.1537138
300.4666855
298.6762406
289.3327516
301.4908078
296.773787
292.5648005
294.2350166
285.2851816
292.3520671
281.2497261
281.263163
280.4630089
278.6924566
275.385279
280.3209159
281.8765441
295.1490755
301.1558354
298.6191139
302.9533679
306.8651316
304.3833271
299.6984388
308.6268733
317.5334168
314.9607911
310.8777887
297.8559213
295.0140948
291.5117412
287.5838863
294.4398329
289.7195734
289.1203597
291.4379118
294.4358715
296.0665396
291.8450016
289.472302
297.7035919
294.5416005
292.9964651
291.2064165
309.7963421
304.0149268
294.7996349
297.8818233
304.0672698
299.6166439
294.7576293
289.4585741
287.9347168
291.9108392
296.758028
297.1413538
291.0308308
281.6948218
294.6727499
293.6018197
290.932376
296.5849252
301.0531314
310.3817117
279.4132353
285.9062088
288.5660226
282.7649016
278.9600401
290.2930031
293.743194
293.8473403
290.8433848
280.5334138
278.5526204
278.2051539
284.3453525
292.0791623
294.4203569
295.4982713
293.9812872
292.0934933
285.0111452
285.2187623
296.0106994
305.2816181
304.4085274
308.0236341
301.3066648
297.5455089
302.0941771
285.6443589
287.6705893
293.2304283
299.6064256
292.2755647
296.8467946
294.1749575
295.5806287
299.2445922
289.8914491
290.2414775
285.3230513
293.1301308
303.4467781
303.2390958
301.4151695
295.7212603
300.4662542
310.9683037
304.9698474
303.7969503
313.6606075
311.6640191