/*--------------------------------*- C++ -*----------------------------------*\
| =========                 |                                                 |
| \\      /  F ield         | OpenFOAM: The Open Source CFD Toolbox           |
|  \\    /   O peration     | Version:  2.4.0-MNF                             |
|   \\  /    A nd           | Web:      www.OpenFOAM.org                      |
|    \\/     M anipulation  |                                                 |
\*---------------------------------------------------------------------------*/
FoamFile
{
    version     2.0;
    format      ascii;
    class       volScalarField;
    location    "0.0009";
    object      p_mixture;
}
// * * * * * * * * * * * * * * * * * * * * * * * * * * * * * * * * * * * * * //

dimensions      [1 -1 -2 0 0 0 0];

internalField   nonuniform List<scalar> 
5120
(
0.4631361237
0.4305070596
0.4008213285
0.3872304068
0.4159917441
0.4193566456
0.412747457
0.4136745194
0.3797280072
0.3782501034
0.39955704
0.3891682206
0.3864869766
0.3949965313
0.4008188696
0.3950154284
0.3985733621
0.3958285874
0.4166186647
0.4633295971
0.4203128044
0.4435090122
0.4479989191
0.4367182149
0.4245164898
0.4111237856
0.404774672
0.427967506
0.4471390462
0.4212969902
0.4187435868
0.4205199836
0.4298148663
0.4212804239
0.4065679132
0.4197421278
0.3947047756
0.4157664468
0.4378427559
0.4181123965
0.4330185928
0.4137146553
0.4038470734
0.4105065026
0.4070685874
0.4201952804
0.423750374
0.4212107837
0.4278095069
0.4398704528
0.4356520797
0.4460771399
0.4096988434
0.3960953728
0.4177531704
0.4455592629
0.4256428145
0.4214945133
0.3948591984
0.402291471
0.4029200823
0.4173142842
0.4394383191
0.3894375216
0.3825520869
0.3860018943
0.4105457747
0.4141600442
0.4036305248
0.4109734679
0.4140970998
0.3983213505
0.4278455201
0.4559505388
0.4304521372
0.4284957234
0.4189833441
0.405379173
0.4062822775
0.379702047
0.4121449305
0.4087730842
0.3652027411
0.3932837321
0.3710096559
0.40372274
0.4117529843
0.4122837764
0.4324247586
0.4125455428
0.4274425073
0.4153120255
0.4120701081
0.3862033202
0.365550921
0.3733034143
0.4108229327
0.4353507061
0.4044076055
0.4233024782
0.4177022542
0.3972025014
0.4306660765
0.4461451217
0.4370742039
0.4341268934
0.4067774825
0.4218188936
0.4388107452
0.4374591964
0.4160155538
0.3953993638
0.3790514143
0.3944211615
0.3845910902
0.4099212047
0.4209783836
0.4271295182
0.4406713484
0.4334792717
0.4257763414
0.4197113503
0.4425370605
0.4512859036
0.4381427026
0.4213393364
0.4069183741
0.4000079862
0.3933576932
0.3868258214
0.4037593802
0.4041695217
0.4193993606
0.3976624462
0.3661742352
0.3561734665
0.3930606336
0.3896338669
0.3896707784
0.4060596001
0.4128441668
0.4480421674
0.4441657539
0.451805879
0.4377589204
0.4395559794
0.4352339646
0.3866473859
0.3726250959
0.4082111326
0.3984330175
0.3909289323
0.3913266784
0.3880405896
0.4101473281
0.4442558504
0.4551531548
0.4548410354
0.4303722468
0.3962193223
0.4100095181
0.3911040901
0.3871651878
0.3940255079
0.3991649068
0.4040399854
0.4011128369
0.3849399477
0.4090131616
0.3939628289
0.4022931321
0.4148456813
0.4114271279
0.4312151233
0.4219433305
0.41231757
0.4079553003
0.4060089265
0.4160619778
0.438668255
0.4146440441
0.4164946559
0.4321291959
0.4131949067
0.392708807
0.3769636241
0.3825860396
0.3934388921
0.4171240794
0.4190626565
0.4397679392
0.4360325582
0.4416272587
0.4319989777
0.4331657189
0.4380727848
0.4218056576
0.4055238541
0.4250889728
0.4154142522
0.3930119844
0.4001584066
0.3933719827
0.4014102112
0.4076208977
0.4259300861
0.4197656782
0.4189416999
0.4018368712
0.4160501388
0.4278461019
0.4077077915
0.3961252941
0.380585008
0.4001694602
0.3938223969
0.3982042742
0.417557332
0.421171917
0.4223522968
0.403054136
0.377064617
0.3974325905
0.4248687881
0.4118083259
0.3878118736
0.3978545025
0.4019210304
0.3783583182
0.4002091671
0.3909337735
0.4075030157
0.405518904
0.401917737
0.4041940993
0.4077147836
0.380993397
0.4086874661
0.3931304049
0.390570621
0.3808204568
0.3966837814
0.4054389547
0.4147286528
0.4376367486
0.4536954854
0.4278377727
0.3978519023
0.4003081772
0.4123891274
0.4078869658
0.3880252118
0.3791502887
0.3953051022
0.4019311021
0.4035320104
0.406082348
0.3860798606
0.3964972126
0.3822484868
0.39380331
0.4036849639
0.4097792534
0.4019406423
0.4158747559
0.4246729674
0.4295303624
0.4126669259
0.3931360603
0.4039635067
0.4044499158
0.389829264
0.4177983993
0.4169503209
0.4126418537
0.4073394381
0.3826681512
0.3863465471
0.386038545
0.4027487415
0.3870570773
0.3828714631
0.4117787853
0.4119848397
0.4393044182
0.4331969212
0.3912271195
0.4156572235
0.4424300909
0.425096443
0.4298296328
0.4390136477
0.4257586741
0.4241251734
0.4063916091
0.4373413969
0.4582419451
0.413104999
0.3968029224
0.4066818486
0.3989483194
0.396846328
0.4158305522
0.424193319
0.41283283
0.4208837252
0.4392072274
0.4435972045
0.4454292844
0.4159591012
0.4280995278
0.4208030536
0.4166514381
0.4289180407
0.4573731319
0.4261343836
0.3894433121
0.3606733891
0.3823407752
0.3704667713
0.4691382685
0.4694128777
0.4471569013
0.4369082125
0.4327854274
0.4020236091
0.3761206357
0.3742213003
0.3967756156
0.4004447341
0.392297339
0.3992722658
0.4175801458
0.4299032336
0.4234591868
0.434526473
0.4434081496
0.4367309712
0.4152902271
0.4468666725
0.3894362825
0.4290486587
0.4488771382
0.4364993693
0.4234994093
0.4174657835
0.4111077107
0.4210481021
0.4376662486
0.4625385879
0.4364734466
0.4250533561
0.4251398785
0.4358983587
0.449862644
0.4358572479
0.4769083891
0.480961697
0.4663502089
0.3999255764
0.4319386246
0.4009908691
0.3642349624
0.391917051
0.4000629521
0.3899532074
0.3822106937
0.4093521863
0.413311527
0.3972902126
0.4074353951
0.4314741128
0.4417836874
0.4532486142
0.4422766958
0.423621243
0.4114778861
0.409111022
0.4325124129
0.4552213431
0.377556476
0.3788587207
0.3883123659
0.4022467215
0.3815565144
0.3914701278
0.383248926
0.3834521122
0.3959218531
0.3991860531
0.4150641469
0.4203736148
0.4176320801
0.4326620602
0.4399294953
0.4502201681
0.4145650469
0.3909009943
0.4030127198
0.4031762172
0.4043783878
0.4120900223
0.4317408315
0.4432422153
0.4718239584
0.463304869
0.4270316048
0.4236225069
0.4188001681
0.4102710827
0.3876749631
0.4351090597
0.4157524332
0.3897392268
0.4080033902
0.4004728877
0.4035695739
0.4032228353
0.4244166953
0.4380351362
0.4231216051
0.4514878716
0.461618233
0.4221992094
0.4313304864
0.4164526742
0.4454260701
0.4148194718
0.3675645658
0.3529859879
0.3704258674
0.3630480118
0.4213535062
0.4419608088
0.4417841406
0.4053298128
0.3894726811
0.4090505004
0.4134993454
0.4249065951
0.4266942361
0.4445337737
0.430848399
0.4331431315
0.411090838
0.3880185162
0.4015714556
0.418160001
0.4272298664
0.4262508324
0.4291807121
0.4451592473
0.4175967147
0.4120953194
0.3938920933
0.4130585343
0.4026400415
0.4035071004
0.4267831963
0.4304193474
0.4297842169
0.4255753315
0.4064918181
0.4342255993
0.4364711231
0.4382974415
0.4033616928
0.4075281843
0.4109975468
0.4051174563
0.3904033138
0.4001858572
0.420035303
0.4267231224
0.4384788992
0.4268699019
0.4695590074
0.4756507997
0.454784431
0.4253038367
0.397947471
0.4089852185
0.3986508867
0.3768713202
0.3490477667
0.3634073379
0.3771710986
0.4148619767
0.4324996665
0.4167314374
0.4120549052
0.4059447857
0.3827550888
0.4048192893
0.3725312761
0.3923572196
0.4264011411
0.4346819341
0.434515768
0.411177229
0.4030524491
0.3860124478
0.3875883518
0.4063415793
0.4254355004
0.4016090305
0.3674947794
0.3670273325
0.3757466959
0.4068058647
0.4083588144
0.4157023713
0.4174066273
0.422399774
0.451330514
0.4401079767
0.4361858005
0.4360981552
0.4334141493
0.3874632992
0.4559778566
0.4589049885
0.42273068
0.4142090318
0.3886713145
0.3814941203
0.3770571684
0.394617325
0.4063912446
0.4217442978
0.4098092213
0.3955349152
0.406424338
0.3973199978
0.3679875178
0.3885163025
0.3939748842
0.403349215
0.4219234221
0.4297911603
0.3913532361
0.3855116221
0.3688763307
0.3694035328
0.3989421742
0.4157020979
0.4271788479
0.4281085161
0.4267315862
0.4349239158
0.4526419183
0.4722293011
0.4353989868
0.4258257962
0.4179285769
0.4113911486
0.3776193578
0.3902185559
0.3892920295
0.3999017035
0.4209624028
0.4184014088
0.4046160054
0.4203637616
0.4328154678
0.415716146
0.4196294997
0.4044239325
0.3937746072
0.3873849696
0.4287571442
0.3952941831
0.4223892034
0.4161514089
0.3958868889
0.367329828
0.381555364
0.4027606915
0.430756607
0.4451701762
0.399515351
0.3982910298
0.3958194911
0.4026973447
0.3876926438
0.3987336809
0.3958613915
0.418039458
0.4197522306
0.38893864
0.3586720185
0.3850659492
0.3770039871
0.3870755519
0.3919857703
0.3967468683
0.374931474
0.3891830396
0.3824303597
0.3758369806
0.3678492377
0.3847596106
0.3779240983
0.3800411897
0.371947092
0.3823138841
0.4233544405
0.4204548921
0.3924467467
0.4311398572
0.4482837594
0.4231119256
0.4155369437
0.4016869494
0.3911729638
0.3796645714
0.3846428033
0.3895431262
0.3580096025
0.3445383055
0.3940348238
0.3908726087
0.3951605092
0.4115387246
0.4178132552
0.399443047
0.380339127
0.3830522261
0.4297824165
0.4078744357
0.4033958848
0.409879689
0.4356696604
0.4036316596
0.427608716
0.4372000619
0.4240238056
0.4109089988
0.4247036569
0.4082344151
0.4670466991
0.4467545775
0.431129815
0.4058666922
0.3777448684
0.3805391353
0.4048323262
0.4223944264
0.4150762035
0.4029147283
0.4285593051
0.4198807801
0.4302278168
0.4252441911
0.4049263644
0.4176293342
0.4835631324
0.4681184444
0.477773486
0.475615796
0.4196058675
0.4052378558
0.3993262687
0.3974216701
0.4376837484
0.4735389808
0.4615633933
0.4678496047
0.4419796875
0.4316443805
0.4174643421
0.4135406712
0.4087762315
0.4207742544
0.4405889857
0.4577678788
0.4500073836
0.4546416138
0.4317730397
0.4336296366
0.4243600015
0.4345552737
0.4346384483
0.4305698937
0.4304290182
0.4134644771
0.414901609
0.4117745378
0.4055498677
0.4117090487
0.4250453144
0.432730026
0.4207765453
0.41673029
0.4377379993
0.4294858335
0.4298679306
0.4517377569
0.4398490306
0.4189480923
0.3977792231
0.3995461397
0.4400012659
0.4110162445
0.3870655295
0.4132269446
0.3844295588
0.3953955755
0.4032447375
0.414930596
0.3801577933
0.4012450209
0.4155448792
0.419053774
0.4098970693
0.416570746
0.4312229457
0.4183604732
0.3630277134
0.376079862
0.4265224568
0.4089632926
0.4029593904
0.4236544616
0.4355075063
0.4332700732
0.426825848
0.4089565201
0.4088027708
0.4174706752
0.4186583026
0.4074986054
0.406157354
0.4064741269
0.4018043038
0.4102291313
0.4186649499
0.4236318785
0.4482476081
0.4337131755
0.4357725163
0.4068494534
0.3987699796
0.3971503779
0.3938881458
0.4185108423
0.4174526263
0.4176777052
0.4338711547
0.4410336798
0.4454341312
0.4585927463
0.4106677852
0.3965874642
0.3811902993
0.3841907486
0.3868106085
0.3953183567
0.3894318676
0.4057044567
0.3867365488
0.4040879447
0.4128119817
0.4255988788
0.4480648838
0.4341435116
0.40940678
0.4142608669
0.4344344873
0.4629534996
0.4581010378
0.426818983
0.4112803989
0.3963212569
0.4029376711
0.3893212717
0.3855062026
0.3859299208
0.3849855997
0.4047175356
0.4343017812
0.4034313799
0.4015760041
0.4070353883
0.4343390675
0.4239964131
0.4219654406
0.4234775673
0.4107221333
0.3950632365
0.410176199
0.4095528307
0.3931086217
0.4160697144
0.4243198253
0.4156639351
0.404896772
0.4125108356
0.4165841406
0.4217007067
0.420851435
0.4189998359
0.3846926677
0.3708618777
0.3854851137
0.4080671501
0.3881760392
0.3940620224
0.4152691866
0.4383017091
0.4383463975
0.4051567809
0.4201414118
0.4126126327
0.4091787708
0.4039586563
0.403842918
0.397121382
0.4042236519
0.4094095314
0.4194785145
0.4032602542
0.4309108433
0.4217940717
0.4045791178
0.3964747865
0.4102830173
0.4410835963
0.4107380666
0.3754832929
0.3709808172
0.3974720969
0.4123581451
0.4374400724
0.4280493562
0.4289130244
0.43542136
0.4374590157
0.424126237
0.4056880746
0.4287775739
0.4278592254
0.4090545033
0.3936926729
0.3931208983
0.4085551001
0.4360735881
0.4163141834
0.4143079816
0.3775841556
0.3689183178
0.3919241693
0.3924969595
0.3972140105
0.4057234977
0.3903178429
0.4332333844
0.425730304
0.4142124496
0.4248674933
0.4221498966
0.4011868532
0.4004691841
0.3909375143
0.4036239471
0.4060860123
0.3983293762
0.4261085433
0.4375860745
0.4256438425
0.4224554244
0.4339764267
0.4487645605
0.4448733761
0.4127493466
0.399412469
0.4084478351
0.3837697362
0.4021312034
0.3991967351
0.4127704308
0.4249252842
0.4603128681
0.4260826183
0.4309440771
0.4256763558
0.4044846736
0.3810799872
0.3588051278
0.3768831041
0.3564872673
0.3522952274
0.3767369917
0.3901551039
0.4020356421
0.4182996971
0.4080861391
0.3926543855
0.3855392946
0.3875824392
0.371417258
0.3932094575
0.4094306017
0.4317631962
0.4080446393
0.404668039
0.4246438157
0.4199892282
0.428307824
0.4259206956
0.409472681
0.3781129427
0.3660393443
0.3786763054
0.3748755022
0.3816357727
0.4146584086
0.3898202469
0.3986821131
0.391715388
0.4093152515
0.3982678697
0.3865591119
0.3968775545
0.3948259103
0.4008776882
0.4167866373
0.4155465592
0.4413809403
0.4147558158
0.4130224017
0.4190995315
0.434717228
0.4064688136
0.4188098391
0.4093469763
0.3862303844
0.3976203416
0.4145853556
0.4163006732
0.4391475031
0.4364482885
0.4329285408
0.4154255663
0.4299689789
0.4445833167
0.4293606432
0.4247761602
0.4276564204
0.4326138305
0.412679648
0.3928251436
0.3865983576
0.4121998227
0.4085832486
0.3844251968
0.3733189446
0.4029670103
0.4003826117
0.440503516
0.4080914327
0.390638116
0.3892470213
0.404420529
0.4125590606
0.4177441493
0.4412382903
0.4046074574
0.393823508
0.4291883482
0.4443596783
0.4292106329
0.4143563457
0.4024847424
0.3973250974
0.4171524011
0.3983961747
0.3976626874
0.4094408591
0.4257153841
0.4337202415
0.4368540964
0.4281078858
0.4452402185
0.4392504286
0.444772309
0.4762259479
0.4577450809
0.4359804916
0.4446157727
0.4112551691
0.4150413269
0.4062622491
0.4291901603
0.414678877
0.3976967282
0.3921991798
0.4027027279
0.399508131
0.3942050857
0.4214333966
0.4262052414
0.4607508871
0.4247268938
0.4042600303
0.392693927
0.3750944737
0.3747344035
0.3942393636
0.4128688497
0.4320404988
0.4472259994
0.4416195989
0.4490811445
0.442041081
0.441931941
0.4530274588
0.4454594412
0.4442919976
0.4165223562
0.4266056519
0.4346184104
0.3985213677
0.4090979088
0.4358359427
0.419089828
0.4264484713
0.4516122901
0.4525207209
0.4448532518
0.4355334529
0.4392623114
0.4205956616
0.4164309336
0.4220750057
0.4076552619
0.375043875
0.3976774614
0.4087597043
0.4199594961
0.3911092414
0.4100714507
0.392145228
0.3918369819
0.3767031205
0.4006856868
0.4423453797
0.4769551705
0.4436777195
0.4278777235
0.4102976561
0.3956224626
0.4196477402
0.4020236841
0.397898991
0.375971086
0.3892202186
0.3986073105
0.3962171944
0.3958105038
0.4272990015
0.4247128825
0.4272143416
0.4176223029
0.4247092768
0.4234092867
0.4381101518
0.453864093
0.4714534815
0.4225796884
0.3774662996
0.3940275156
0.3963573836
0.3858350036
0.4045054204
0.3933992071
0.401934328
0.4113896152
0.4159485254
0.4249624377
0.4378849157
0.4336705234
0.4079461826
0.4338376417
0.3993357415
0.3881182519
0.3978791323
0.4228036127
0.406822228
0.4348695335
0.4345445059
0.4047330101
0.3862388834
0.4048506419
0.4186386258
0.4400241038
0.4428950011
0.435863888
0.4029101774
0.4171169847
0.4592382272
0.4484025181
0.4312962307
0.405226337
0.4104865937
0.4395172112
0.4272280895
0.4208477224
0.4328786349
0.4170323878
0.4077321871
0.4231322588
0.4298723507
0.4445069784
0.4636789253
0.4488714563
0.4503045758
0.4207233743
0.4291680813
0.4571424044
0.3969537205
0.4209839678
0.4350044061
0.4621446466
0.4254632172
0.4215348939
0.4366617081
0.446913379
0.4369166642
0.4491560586
0.4208975111
0.4351214051
0.4166424917
0.4035987261
0.3769811164
0.3510419331
0.3680022906
0.4075803088
0.4100321988
0.3903690113
0.4467685767
0.4208544164
0.4156028476
0.4126512425
0.4462394467
0.4125033479
0.420402809
0.4012931511
0.3684343766
0.4029883207
0.408323814
0.3971518635
0.3786292614
0.3772568106
0.3956031252
0.4175191601
0.4215845385
0.4271089596
0.4152848944
0.4481720865
0.3834928841
0.3798545104
0.3928228769
0.3924527006
0.3959151689
0.4206209999
0.4145967886
0.421365125
0.425941917
0.4417269689
0.4422102311
0.4570418886
0.4602337888
0.4310376787
0.430466161
0.4336489751
0.4095342987
0.4250914514
0.4188062314
0.3751376622
0.4000121135
0.4074616021
0.4077177224
0.3888080708
0.3762014096
0.3674342969
0.3931692115
0.4043385379
0.3961763051
0.4113633875
0.4285580123
0.4172665166
0.4022957065
0.4061162426
0.3973891948
0.4105766619
0.4152365863
0.3985454339
0.3820870078
0.3856224346
0.4195429406
0.4047214834
0.3752884388
0.3831372529
0.3951043123
0.3911039917
0.399440207
0.3993998245
0.387000332
0.3709261241
0.3848630921
0.4145849797
0.4122972263
0.4184460192
0.4349764598
0.4225403799
0.4151411784
0.4430282148
0.4371779915
0.4605847078
0.4063905853
0.4513247212
0.4393866358
0.425512626
0.4257133044
0.4218811282
0.4127201212
0.4187843899
0.4148804472
0.4346054134
0.4179563963
0.4336735505
0.4295919574
0.3827067232
0.356744109
0.3671539335
0.3982788755
0.4064168677
0.3924039797
0.3947844148
0.4316772429
0.4206684979
0.4349734394
0.4324911078
0.4588438885
0.4035549539
0.3681894473
0.3997144432
0.4127546767
0.4265920754
0.4126246632
0.4036538412
0.414472652
0.4223523521
0.4090365039
0.4195128748
0.4473124565
0.4241444861
0.4387336684
0.4470043914
0.3780329231
0.4187233507
0.4071798834
0.4118101313
0.4104593378
0.4022704785
0.3955793716
0.3876453075
0.3946714541
0.3880106146
0.4055856518
0.4033718006
0.4118219548
0.4120409849
0.4350680992
0.4224048608
0.4154420395
0.4019697075
0.3917169344
0.3693727969
0.4232499708
0.4331713207
0.4476436794
0.4222890498
0.426919566
0.397243112
0.4209957061
0.4210162272
0.4425449934
0.4454240722
0.4549772671
0.4411734455
0.4189499985
0.3979642966
0.4053144466
0.398212683
0.4310029323
0.4145865022
0.4381007954
0.4345316536
0.4396292985
0.4485665564
0.4582660434
0.4466890341
0.4303609769
0.4438388411
0.4737998058
0.4495917233
0.4347378464
0.4253495821
0.419693876
0.4251999581
0.4391835708
0.4138363932
0.4214989914
0.3970995607
0.41208545
0.4284678699
0.4356865792
0.4131147283
0.4033134742
0.4146881889
0.4337129555
0.4363754229
0.4197046539
0.4123455293
0.4354253933
0.4437394816
0.4349159015
0.4309041028
0.4536701747
0.4269724498
0.4276005247
0.4262399571
0.4393173927
0.4336049994
0.3971346707
0.4066544186
0.4177215812
0.427643484
0.4058029183
0.4345469095
0.4280337063
0.4347503947
0.4227473596
0.4353451637
0.4151100271
0.4069446515
0.4207506459
0.4620140992
0.4370051744
0.4330092158
0.4415547852
0.4045790952
0.3935812675
0.3885436521
0.4119078741
0.3928938359
0.4239803525
0.4320120588
0.3919461942
0.400892692
0.4393051254
0.4304001603
0.4319532304
0.396122501
0.3654384908
0.3585485865
0.3894249518
0.3910276314
0.4061558109
0.3932553968
0.3868846751
0.396573265
0.4263123193
0.4187246874
0.4361564247
0.430679875
0.4200716863
0.4119733507
0.4060906174
0.4163349256
0.4067136169
0.4350281483
0.4266264507
0.4593074003
0.4678738892
0.4423584525
0.4069908856
0.4466086796
0.4366446562
0.4250445787
0.4067581701
0.3968845187
0.4024249717
0.3901524849
0.4052701132
0.3844083775
0.3951655274
0.3809610673
0.370770208
0.3803935978
0.4016018271
0.3928496232
0.407700489
0.403871072
0.4197007966
0.4209611614
0.420567845
0.3823474089
0.4083708487
0.4163230572
0.412239331
0.4047020641
0.3970693801
0.4031884673
0.390717604
0.4022841874
0.4176765895
0.3902668466
0.4506502811
0.4387517136
0.4068318187
0.4340103822
0.4182304906
0.4188982015
0.4007672911
0.3923040446
0.4016476252
0.4075029214
0.4047196076
0.4264902855
0.4253594668
0.4113705328
0.4181495471
0.4047397721
0.4027362386
0.401702674
0.4016202851
0.4354543455
0.3895015242
0.4102137063
0.4027203944
0.3949432533
0.4064965319
0.4028366294
0.4059049769
0.4437163481
0.415634042
0.4041719772
0.4173920612
0.4044758012
0.3999392702
0.4119319829
0.4073345878
0.3968395462
0.3915344658
0.3897486933
0.3805178712
0.3652301294
0.3709186108
0.3896008781
0.4100138178
0.4223742459
0.4154901802
0.4300085212
0.4183603341
0.4108886902
0.422314119
0.3897863997
0.4046296632
0.4432790086
0.4073413795
0.4016803151
0.4169096558
0.4127555534
0.4219237305
0.3996614348
0.3948059376
0.3810911769
0.3908353831
0.3877436322
0.4013570763
0.4055253043
0.4245020936
0.4319082182
0.4178931064
0.378727817
0.3803252519
0.4048508528
0.4316391091
0.3998586163
0.3906872905
0.3875218231
0.403155925
0.413232223
0.4086323468
0.3789591025
0.3794665528
0.3974292086
0.3815210295
0.3987666142
0.3797949387
0.4006930373
0.4207376001
0.4128633615
0.4073999821
0.4296163264
0.437316636
0.4275452683
0.3966631627
0.4151342911
0.4236078257
0.4214449199
0.4105017916
0.4222486011
0.4300480369
0.4203218217
0.4139321608
0.4000590849
0.4278310449
0.4074240826
0.3821460285
0.4013082013
0.3884498558
0.43120793
0.434027459
0.4346366365
0.423581135
0.45735738
0.4786011646
0.465101799
0.4265123554
0.4267742778
0.4188891994
0.4491055792
0.4437652906
0.4264743064
0.4380937237
0.4251153064
0.3966541724
0.3929587252
0.3825791193
0.3890464359
0.384869571
0.3927739797
0.3949264445
0.4041997051
0.4290839821
0.4328416221
0.4447720054
0.4400512627
0.4482342583
0.4442926816
0.4221882868
0.4216436141
0.4114917967
0.4048367584
0.4000204985
0.4217888753
0.3940352824
0.3759397756
0.4020914617
0.4535146744
0.447425366
0.4485206237
0.4234627444
0.390922968
0.3649544182
0.3940468287
0.4017584913
0.4071537889
0.4120503917
0.4076877836
0.4305198969
0.4209908512
0.4013213668
0.411538663
0.4038041069
0.3856357449
0.4374773524
0.3962385912
0.3954316396
0.3883162363
0.4229249994
0.4284772932
0.4142938937
0.4476968669
0.4436870413
0.4474775165
0.4182514296
0.4098127691
0.4159116774
0.4381481349
0.4408543514
0.459264874
0.4163705596
0.4030021208
0.4084218607
0.4595407643
0.4210256544
0.4194631392
0.4498211621
0.4286470397
0.4381231336
0.463656912
0.439100368
0.4022856443
0.368772714
0.3595215701
0.3920435707
0.4238476855
0.4152721993
0.441136552
0.4295124689
0.4395923877
0.4629503868
0.4569093355
0.4165085013
0.4350530888
0.4707587057
0.4672748452
0.4541422744
0.4403636251
0.4353378185
0.4225702391
0.427278668
0.3961349658
0.4166458839
0.4206718708
0.4140709291
0.4325620479
0.4471404952
0.4311147126
0.4485517427
0.4748003646
0.4473311211
0.4583814847
0.4269343907
0.4417432214
0.4744277554
0.464054531
0.4704338737
0.44852264
0.4556417375
0.4502281639
0.4433165849
0.4705219642
0.4469246942
0.4091774992
0.3975288696
0.4202029995
0.4207792925
0.4285214008
0.408577402
0.4088450772
0.4158362781
0.4000151849
0.4126475947
0.4250756807
0.3959602859
0.4325298046
0.4378624214
0.4274365863
0.4527647261
0.4167657788
0.4253004611
0.4264017737
0.406029759
0.3837762918
0.4283629669
0.4160221512
0.3804077742
0.3762092351
0.3815132776
0.3934585677
0.3889356216
0.3992493946
0.4175444289
0.4388391117
0.3954248066
0.4191734118
0.4158834619
0.4232663521
0.4339116936
0.4507189235
0.4590787701
0.4346653871
0.4103701702
0.3842305458
0.3643458873
0.3897063246
0.4170233298
0.426024872
0.3991569622
0.3741536575
0.3795163507
0.3686310308
0.3625320634
0.3751244984
0.4266442519
0.4224973845
0.3962185346
0.3971425424
0.3975581677
0.4129019133
0.419439516
0.4516097961
0.4346328421
0.3921092324
0.4010625955
0.4005492596
0.4071813557
0.4294526157
0.4144185989
0.4374973728
0.4152112787
0.4185308626
0.4054185003
0.4052907425
0.3916702592
0.4180518442
0.4374556275
0.4518223822
0.4114698506
0.4094459061
0.3865134537
0.3841522286
0.4020723775
0.4303381528
0.4112288414
0.4165501938
0.41547021
0.3940475333
0.386456525
0.4226428496
0.4382518398
0.4213369066
0.3875615174
0.4026941591
0.4210685679
0.3952256729
0.3934794353
0.4020720785
0.4354606555
0.4080303836
0.4129817895
0.394563916
0.3928163721
0.428539183
0.4193435599
0.3965159197
0.4156974354
0.4240689128
0.4309835224
0.4192292792
0.4310272568
0.4420218085
0.4410777288
0.4319960818
0.3960944585
0.4025540816
0.4140307012
0.3918755259
0.3861304501
0.3891020846
0.4062888157
0.412492054
0.3900402276
0.3942679043
0.4132290461
0.4350189872
0.4443062642
0.4278505913
0.4001731478
0.4131593211
0.4206140617
0.4309504407
0.4346046168
0.414314182
0.4502153911
0.4270334984
0.4014433418
0.3884305685
0.3967155524
0.4014264728
0.4287314858
0.4127429695
0.4266696283
0.4278970553
0.4243975546
0.385720861
0.4120603251
0.3980727848
0.4168276677
0.3992323382
0.390246134
0.436084063
0.4648599425
0.4588572835
0.404103228
0.4274483689
0.4140316539
0.3987668473
0.40134831
0.3966772132
0.4085801461
0.4257815492
0.4395530317
0.4379062708
0.4189222395
0.4159636089
0.401234534
0.4120282571
0.4096691477
0.4003626723
0.4005949248
0.3739898743
0.3916200898
0.3875248316
0.4118757102
0.4307750227
0.4673690956
0.4175527407
0.4342843613
0.4324590826
0.400007697
0.4136101416
0.4021857705
0.4144995737
0.4086904304
0.4082910573
0.4115678872
0.4355936156
0.4554197571
0.3942029422
0.3911582741
0.3989059415
0.4032137286
0.4093679757
0.4268448177
0.4224861425
0.4220720797
0.4444159555
0.472481337
0.4404871681
0.4602337917
0.4579476696
0.475628062
0.4346552267
0.4422362279
0.4207296919
0.4340683845
0.4414687412
0.4087632827
0.4151284535
0.4521599972
0.4499067189
0.4534102057
0.448906517
0.4318096244
0.4400198945
0.4562936346
0.452572811
0.4423870802
0.4240521502
0.4071092969
0.4234392771
0.4141941075
0.4115437441
0.4051885096
0.412325424
0.3983261697
0.422971326
0.4528280921
0.445079437
0.4696901459
0.4823088857
0.4482347976
0.4318728301
0.4727799269
0.4538220966
0.4211277989
0.422936566
0.4171770478
0.4312982915
0.4139820258
0.4041211338
0.4165563634
0.4163451383
0.405853656
0.3945244276
0.4052341352
0.3954613524
0.3895373619
0.4118406817
0.4323396547
0.450792245
0.4051880096
0.431200741
0.403529785
0.4268748457
0.4093005606
0.3985740232
0.4022526306
0.3904782499
0.4124656092
0.4200217747
0.4091466178
0.3848722437
0.3864581736
0.3875336839
0.403762308
0.3987933774
0.4195369622
0.3915039805
0.3909938776
0.4190782519
0.4245036967
0.4191550241
0.3900431568
0.3691779791
0.3882356973
0.4340568465
0.4122447651
0.4498105451
0.419543816
0.4084446055
0.4337899084
0.4195296279
0.4152124638
0.4118599055
0.4067862275
0.4115822729
0.4067056216
0.3980006718
0.4109591735
0.4245158957
0.4130651529
0.4153273622
0.398990134
0.4445397507
0.4431270558
0.4596998974
0.4769885734
0.4422054516
0.4057423478
0.4358823806
0.4196785696
0.4144236069
0.4388833359
0.4515559034
0.4574126188
0.4462208937
0.4297022865
0.4352715357
0.4331971806
0.4307642479
0.4188619551
0.4118325162
0.4687859726
0.4353349905
0.4232032804
0.4279059041
0.4093277041
0.4395106313
0.4532799651
0.4190632795
0.4027415177
0.4190663361
0.4428251325
0.4165962679
0.4134093359
0.4153904904
0.418065244
0.4138897784
0.4120649628
0.4145124611
0.4455014521
0.4817445032
0.4272896963
0.4175471244
0.4023118336
0.3919895289
0.3863230879
0.3931353693
0.3928371759
0.3916760947
0.4283446697
0.4353581734
0.4133259123
0.39013556
0.3769836941
0.3835040132
0.3869778859
0.4164858532
0.4658044915
0.4836198629
0.4741398175
0.4339248779
0.3993518189
0.3820545591
0.362687281
0.3714236466
0.3815544045
0.3767670334
0.3556884317
0.3744263046
0.3688181807
0.3948842806
0.4227652043
0.4390123357
0.4201891049
0.4234353993
0.4160059626
0.4081283297
0.3833126786
0.3894618773
0.3683410669
0.399811629
0.4150844248
0.3907430542
0.3608299085
0.3596934668
0.3566285242
0.3764892708
0.3806618185
0.401872142
0.387783646
0.418059719
0.4135696297
0.3865063404
0.3915618876
0.3719925202
0.4161053893
0.4016905962
0.4368550439
0.4341907818
0.415796871
0.4096918857
0.391505004
0.3714706249
0.3857233577
0.3707292763
0.3962479159
0.4119350872
0.4034043237
0.3953610761
0.4083483028
0.4074446384
0.3938556502
0.3983967445
0.406329075
0.475762657
0.45858295
0.4380146355
0.4170628358
0.3876091642
0.4323401341
0.4072153575
0.4249800667
0.413992512
0.4252291163
0.4304105039
0.4097349621
0.4280091532
0.4383473327
0.4196478736
0.3766342796
0.3667626375
0.3925484944
0.4140654556
0.438423915
0.4133830056
0.4250097883
0.4254833724
0.4168844955
0.4242681294
0.4198578044
0.4131442645
0.3800551026
0.3486432783
0.3689408974
0.3828443778
0.4144310605
0.4141344268
0.4006483363
0.3920264857
0.3927257801
0.3894089111
0.383618283
0.3959893857
0.3842999098
0.3773152372
0.3849437085
0.3971028683
0.4103911492
0.4279686501
0.4162883029
0.4292722505
0.3903688188
0.4020107893
0.3964318707
0.4221791987
0.4203734437
0.4200392966
0.4048090235
0.4139992527
0.4212200141
0.4239427795
0.4041900781
0.4185622307
0.4079287802
0.386154113
0.3768847308
0.3887167585
0.3829904926
0.3660394452
0.3910196787
0.3882673651
0.3878475841
0.384386031
0.3955715142
0.4086155413
0.4404407219
0.4309375108
0.466917713
0.4467568506
0.4283308763
0.4065791978
0.4133854521
0.381245884
0.3998420517
0.4261345005
0.4198380026
0.402707565
0.4094868267
0.4395877009
0.4348419813
0.4114854298
0.4288915373
0.4061197761
0.4252639088
0.4392596499
0.4349783104
0.4398020541
0.4468327829
0.4368962906
0.4453305954
0.4407094139
0.4669779967
0.4483588686
0.4121562767
0.3959874105
0.4246460104
0.4252719215
0.4194750177
0.3907490388
0.3858219988
0.3715733739
0.3994624005
0.3895086614
0.408521195
0.3885435748
0.4337947406
0.4436410205
0.4440033864
0.4397181578
0.4522683369
0.4425527846
0.4498471228
0.4426258906
0.4466107432
0.4585664098
0.408225814
0.4008711298
0.3938733631
0.4021928371
0.3845281591
0.3929992964
0.4631284297
0.4806046168
0.455444678
0.4349900224
0.4251924708
0.3978935539
0.4513399889
0.4543693116
0.4597242969
0.4485303358
0.4455276868
0.4334886817
0.3972854056
0.3985520408
0.4201616956
0.4098479231
0.4007969531
0.3973029603
0.4279568898
0.4412587704
0.4383301672
0.4361190722
0.4471914367
0.4453389426
0.4238444718
0.4075881717
0.4226398313
0.4423412958
0.4339259588
0.4152902498
0.4088753522
0.4177281522
0.4203472429
0.4145859175
0.4063260701
0.3672471359
0.4195772288
0.4374027531
0.4840289266
0.4477410508
0.4262555588
0.410664323
0.414677266
0.3859745835
0.395568913
0.423546046
0.4066373779
0.4186365003
0.4732522496
0.4750989745
0.4527080615
0.4601770717
0.4211289632
0.4360846175
0.4067842261
0.4135905046
0.429049337
0.4125082597
0.4427637132
0.4523492146
0.3965324518
0.4114027597
0.4475499647
0.4349140926
0.4134879768
0.4022574043
0.4014801547
0.4399666324
0.4245460505
0.4243973701
0.4142068394
0.4061777326
0.4017082076
0.4091155226
0.4366551526
0.4560594416
0.4334480899
0.407791895
0.3892936107
0.3725615036