/*--------------------------------*- C++ -*----------------------------------*\
| =========                 |                                                 |
| \\      /  F ield         | OpenFOAM: The Open Source CFD Toolbox           |
|  \\    /   O peration     | Version:  2.4.0-MNF                             |
|   \\  /    A nd           | Web:      www.OpenFOAM.org                      |
|    \\/     M anipulation  |                                                 |
\*---------------------------------------------------------------------------*/
FoamFile
{
    version     2.0;
    format      ascii;
    class       volScalarField;
    location    "0.0009";
    object      p_N2;
}
// * * * * * * * * * * * * * * * * * * * * * * * * * * * * * * * * * * * * * //

dimensions      [1 -1 -2 0 0 0 0];

internalField   nonuniform List<scalar> 
5120
(
0.3526633772
0.3192373124
0.3018439262
0.2893313187
0.3252291137
0.3248612728
0.3194029829
0.3171613685
0.2982161379
0.3024796722
0.3180387295
0.3025225526
0.312590853
0.3221108721
0.3266139203
0.3166251834
0.3092293989
0.3121261013
0.3210599985
0.3540421183
0.3428889165
0.3694347503
0.3682670209
0.3477065147
0.3382826063
0.3276280667
0.3288871796
0.3554380946
0.3699211278
0.3461468326
0.3319141677
0.3270264294
0.3262190075
0.3252035784
0.3167709293
0.3203393937
0.3065894307
0.3215449084
0.3359332331
0.3340655496
0.3134995148
0.302751723
0.2937850793
0.3015409761
0.3046356652
0.3129013683
0.3200923956
0.32266479
0.3276365732
0.331315337
0.341428576
0.3427977314
0.3173911669
0.3165201476
0.3276651144
0.3473616008
0.3345557506
0.3284184307
0.3000620839
0.306671042
0.3207442945
0.3372066508
0.3476562538
0.3145490077
0.3013189346
0.302866883
0.3221507787
0.3229514432
0.2997048324
0.301009367
0.3082310364
0.3019738441
0.3166672507
0.3418761855
0.3317052191
0.3350844164
0.3307517707
0.3287124391
0.3263613147
0.2968979729
0.3313946201
0.3361429075
0.3093384847
0.3242686256
0.3052020916
0.3153130683
0.329581397
0.3198071093
0.331343289
0.3056413144
0.3209088168
0.3065139141
0.3225076059
0.3022416872
0.2920982332
0.2850211377
0.3095971191
0.3176315447
0.2997790481
0.3228846415
0.3411947045
0.3257490772
0.3415168412
0.3543443926
0.3425061818
0.345067162
0.3263441601
0.3422514581
0.3524601434
0.3442040424
0.315237635
0.3087834117
0.2908495525
0.3103372655
0.3041062656
0.3163811299
0.3221744218
0.3289276657
0.3552711089
0.3499095701
0.3295620914
0.3199654599
0.3394101696
0.3588867939
0.3637942968
0.3400814642
0.3234224477
0.3114123615
0.3020482432
0.299685664
0.3082085298
0.3054213251
0.3251075775
0.3107561938
0.2890918961
0.2757931168
0.3010375117
0.3106205919
0.3082676583
0.3114296514
0.314690081
0.3355925284
0.3412622285
0.3434469564
0.3180092522
0.3228499826
0.3314520975
0.3009589347
0.2751098132
0.2942632364
0.2913195545
0.2974723767
0.2918329772
0.2934364699
0.3077354177
0.3444536051
0.3416222743
0.3342983875
0.3098480852
0.3066805272
0.3185363037
0.3035408817
0.2929800536
0.3075918235
0.3116645368
0.3057823055
0.3011164278
0.2969764014
0.3185746764
0.3089682649
0.3051130764
0.3156740845
0.3110753563
0.321953837
0.3219050536
0.3230242685
0.316815696
0.317561434
0.3352374807
0.3502125177
0.3102892859
0.3202567027
0.3361394122
0.3262334711
0.3023062864
0.2896791215
0.2856798593
0.292965376
0.3153945488
0.3249354169
0.3517440625
0.3293304085
0.3318454473
0.340334563
0.336172025
0.3403321845
0.3285083926
0.3170903164
0.3387284832
0.3197708752
0.3068951073
0.3084303884
0.3016752199
0.3129306469
0.3255299029
0.3386758003
0.3362385665
0.3338791124
0.3189541284
0.3220436041
0.3367928869
0.3301970717
0.3217912821
0.3002161182
0.3065409786
0.2946977868
0.3041222191
0.3242743994
0.3277663245
0.3357546867
0.3062334952
0.2881627176
0.2993109352
0.324982654
0.3016242286
0.2888014421
0.3024369513
0.3103177598
0.277678251
0.3009744377
0.3045098206
0.3131826782
0.3184009243
0.3151796194
0.3109467879
0.3051027407
0.2916569205
0.3118465246
0.3027784517
0.3105430439
0.3146555649
0.3200436183
0.3179896305
0.3276626603
0.3501568003
0.3650984606
0.3316907179
0.309457061
0.309871305
0.3222952424
0.3208531734
0.3189652471
0.307805788
0.321745645
0.3173082538
0.3086582867
0.317715127
0.3019003851
0.3141267946
0.3163919204
0.3117022309
0.3102641907
0.3015065812
0.2922623696
0.3033929262
0.3179854209
0.3366045425
0.3132714266
0.3067614838
0.3210102618
0.3207915162
0.3152031097
0.3378394432
0.3287647551
0.3246545724
0.327307392
0.2993940154
0.3030550901
0.3131190083
0.3253630771
0.2931224056
0.2985395947
0.3231365323
0.3235753824
0.35379229
0.3587743322
0.3148513786
0.3339817771
0.3521798955
0.3240021605
0.3210478115
0.3286127698
0.320205851
0.3300145288
0.3181382526
0.3431818387
0.3510677344
0.3248517715
0.3058289287
0.3025852687
0.3118194994
0.3064416416
0.3200961552
0.3166688647
0.3023970932
0.318482115
0.3513031374
0.3551598436
0.3513578958
0.3201050898
0.3410153324
0.3373541219
0.3232084433
0.3270298711
0.3558347751
0.3311560536
0.3070973577
0.2729946024
0.291809003
0.2876868377
0.3417674953
0.3403478973
0.3418831762
0.3435699345
0.3344053575
0.311459174
0.2885476063
0.2885203831
0.3062686567
0.3137926919
0.3070856025
0.3194978406
0.3211447535
0.3251579093
0.3235651021
0.3318009117
0.3441131498
0.3345139575
0.3216630161
0.3304755891
0.3011440237
0.3274504464
0.3408553901
0.3509521933
0.3421538526
0.3322570707
0.3199211452
0.3239609094
0.3406285597
0.3740841644
0.3582207186
0.3442126748
0.339889446
0.3435231375
0.3585088517
0.348442404
0.367485019
0.3779222788
0.3673990496
0.3097049077
0.3278630836
0.3032818756
0.2736935814
0.2927933842
0.2909775657
0.2870299438
0.2953737667
0.3255540061
0.3326220188
0.308743384
0.3092048949
0.3415583595
0.3570359959
0.3565741859
0.3457864641
0.3271117987
0.3040599523
0.3118877012
0.3200839396
0.3365100965
0.2947229178
0.299326933
0.3040228944
0.3027406085
0.3035756419
0.3112683076
0.290649941
0.2830324201
0.3231249004
0.3206945737
0.3368305806
0.3387825423
0.3339646702
0.3508292956
0.3481090087
0.3343707778
0.3166695281
0.2967849768
0.3095413099
0.3160083198
0.32518338
0.3140019458
0.3331335706
0.3444890971
0.3665657012
0.3741775945
0.3424280189
0.3456509673
0.3392033934
0.3303275692
0.3090447475
0.3496795188
0.3365954403
0.3179328552
0.320062873
0.3227865268
0.3091319122
0.319522667
0.3445993515
0.3577842248
0.3481129152
0.37322463
0.3784351054
0.3295238248
0.3344519642
0.3195706596
0.3588239422
0.3267451263
0.2873509861
0.2709372426
0.2949208051
0.2764856816
0.3177489649
0.3338199736
0.3492590676
0.3326135678
0.3262115492
0.3288815565
0.3278401724
0.3438405692
0.3262016151
0.3395626781
0.3195509935
0.3349672993
0.3338025485
0.3086716347
0.3060952715
0.3176413641
0.3275335721
0.3302879584
0.334322089
0.3572665061
0.3375461652
0.3218069164
0.3008431335
0.2977661095
0.2968762679
0.3082445229
0.3249188745
0.3357716095
0.3392285018
0.344182906
0.3329136135
0.3420971037
0.3281983293
0.331463538
0.3030107506
0.3071181512
0.3052302061
0.2985931894
0.2844959382
0.2871515968
0.3118308502
0.3267193687
0.3491731962
0.3403433601
0.3713329802
0.3777030172
0.3642775764
0.336448647
0.3151184385
0.3166468937
0.305710638
0.2958577571
0.2786024295
0.2896890427
0.3040815418
0.3178514762
0.3341753735
0.315570761
0.3014739867
0.3107937109
0.2906720672
0.3001926881
0.2917095206
0.3157805936
0.3437158057
0.3518516381
0.3341861929
0.3113680298
0.3127664288
0.3011193711
0.3086322147
0.31403987
0.3398399177
0.3158780944
0.293125839
0.2993174241
0.3033765606
0.319330714
0.3277211966
0.3287501035
0.3369459061
0.3320893835
0.357887791
0.3362175297
0.3209300826
0.3109719245
0.3144915828
0.2937928586
0.3645585773
0.3810447283
0.3500025656
0.3320510008
0.3110574785
0.3103212656
0.2938706727
0.3183337072
0.3333615462
0.3465084286
0.3248918266
0.3095491928
0.3101279484
0.3108705557
0.295144191
0.3105994767
0.3130059368
0.319571308
0.3410790088
0.3413903601
0.3048904409
0.2878008435
0.2864761414
0.2876007701
0.3156964726
0.3239192238
0.3329180702
0.3237313621
0.3144469567
0.3218244308
0.3586300706
0.3646665976
0.3293518938
0.322134921
0.3249669228
0.3131865778
0.2893020997
0.3158431931
0.3180972375
0.3111676213
0.3132528488
0.3380000428
0.3183767092
0.3324102616
0.3425445894
0.3234157251
0.3278419062
0.3260850966
0.3209830291
0.3017860505
0.3142762483
0.296656489
0.3441601618
0.3323429389
0.3186891013
0.2942429778
0.3006299852
0.3146606983
0.3347238857
0.3375459806
0.301024489
0.3020725755
0.299600425
0.3177502477
0.3076181786
0.3010795211
0.298495864
0.3195257354
0.3279253533
0.3087035368
0.2918557469
0.3056372029
0.289716897
0.3009834239
0.2900659073
0.3001922681
0.2964537484
0.3091858894
0.2905831576
0.2853251768
0.2869513447
0.2908886829
0.2935082625
0.2903812459
0.2842303864
0.2899663292
0.3316634869
0.3259987674
0.3030461567
0.3284410664
0.3349400219
0.3122942561
0.314257601
0.3066144673
0.3194290283
0.2938943803
0.2956980046
0.2966264573
0.2817719923
0.2745411506
0.3061359529
0.3074615618
0.3016523265
0.3262696724
0.3216772631
0.3070505821
0.2878794415
0.2928710988
0.3382763953
0.3250733666
0.3081582503
0.3023430282
0.3276576061
0.3172752939
0.3300831079
0.3435750886
0.3459852784
0.3361147754
0.3468490317
0.3220813747
0.3681240904
0.3460055549
0.3376935847
0.3216670244
0.3009686096
0.3086692251
0.3282828902
0.327675901
0.3025326137
0.3024286327
0.3228803205
0.32266314
0.3210022968
0.3247737146
0.3095155366
0.3229127577
0.3677627187
0.3638735486
0.3659699903
0.3785077172
0.3238971418
0.3213838233
0.2999914014
0.3096669545
0.3517371434
0.3938931003
0.3703485005
0.3602782081
0.3358362251
0.3319387795
0.3207162532
0.3208893392
0.3196999415
0.3279478475
0.3481760036
0.3640315116
0.3576030005
0.3594776386
0.3455417833
0.3428547865
0.3253424036
0.3440212603
0.3391025075
0.3349596642
0.330258159
0.313892335
0.3186849472
0.3254571126
0.3176412492
0.3180197346
0.3333363876
0.3353856048
0.3218289814
0.3233962145
0.3502873323
0.3481556539
0.3460921882
0.3496622667
0.3447145917
0.3160976198
0.3195372766
0.3143785029
0.3410792853
0.3159208068
0.2992438178
0.3222267708
0.3176015203
0.3230967983
0.3207792982
0.3314845026
0.2961976961
0.3131548692
0.325805578
0.3219966057
0.3137069289
0.3133521407
0.3170851954
0.322205972
0.2769938209
0.3027694215
0.3190461124
0.3116572912
0.3081206127
0.3263769015
0.3318329707
0.3417715931
0.3337165416
0.3113165806
0.335768639
0.3388314404
0.3274101402
0.3066146874
0.3164757
0.3206914925
0.3154641451
0.3239150465
0.331805645
0.3341645725
0.3412340874
0.3218935456
0.3399664948
0.3227973303
0.3076696525
0.3133327584
0.3169287591
0.3289310377
0.3243629054
0.3257294734
0.3304161319
0.3367535727
0.3526221111
0.3708543488
0.3248466946
0.3092582923
0.2951181564
0.3011693972
0.308015577
0.322519959
0.3067281339
0.3169642338
0.2881837475
0.3039216696
0.3277940112
0.3385608289
0.3514971784
0.3399696141
0.3070631262
0.2944643163
0.3189097585
0.3485376804
0.3521216493
0.322899993
0.3103359018
0.3111133089
0.3049589489
0.3085209655
0.3122707018
0.3087315516
0.3008858844
0.2951858422
0.3392198128
0.307404932
0.2989687097
0.322428092
0.3495312218
0.3348988965
0.3281469979
0.3337944606
0.3205013255
0.3007620286
0.3020813268
0.306724932
0.2974802901
0.3221669673
0.3418903939
0.3219579947
0.3018715795
0.3014499364
0.3071750981
0.319625051
0.3276679676
0.333215259
0.3005958561
0.2821664196
0.288531687
0.3146150421
0.3117970439
0.3154490484
0.3309875386
0.362518139
0.3649020415
0.3288058156
0.3366836799
0.3317983037
0.3251977946
0.3034413183
0.3062037854
0.3051495995
0.3152923557
0.3120097858
0.3347916828
0.3212729711
0.3480840747
0.3382948548
0.3291379445
0.311178236
0.3157972032
0.3404791384
0.3208383446
0.2975122488
0.2938540607
0.3141091763
0.330159939
0.3361442498
0.3076762916
0.3275072768
0.3290116357
0.3461362083
0.3326888106
0.3223546536
0.3483248247
0.3441252554
0.3252636074
0.3090465041
0.3098756626
0.326506854
0.3387684172
0.3213298328
0.3215929285
0.289150609
0.2827689644
0.3084247152
0.3105870651
0.3162603121
0.3218613114
0.3101578435
0.355331208
0.3534074779
0.343667259
0.3561724101
0.3361363366
0.3104176103
0.3084452211
0.310000718
0.3074477854
0.3191691401
0.3131354595
0.3381041378
0.3439476046
0.330700499
0.3255216038
0.3406114104
0.3582052929
0.3461662057
0.3200456541
0.3102750947
0.3175479305
0.2999997458
0.3110701269
0.3131572073
0.3208218586
0.3351152982
0.3583481821
0.3294108872
0.3415996354
0.332324578
0.3156282517
0.2950864548
0.2734031854
0.2884583611
0.2792968182
0.2684228219
0.2936585638
0.3127265052
0.3106093591
0.3278157843
0.3239843308
0.3046651141
0.2950957658
0.3010110864
0.2885564151
0.2885685121
0.3039543026
0.3175004166
0.3068341613
0.3144305078
0.3159551374
0.3194289655
0.3370424528
0.342090026
0.3231406475
0.2877847015
0.2581780082
0.2665304416
0.2773992669
0.2978630321
0.3147236716
0.288428501
0.3081171697
0.2970846052
0.3022089669
0.3024314743
0.2850318541
0.2926675902
0.2965613125
0.3095369881
0.3243707416
0.3244374308
0.3383016328
0.3040555796
0.3064804504
0.3191375203
0.3437838559
0.3243268701
0.3229621337
0.3228675201
0.3033473452
0.3142578448
0.3164534439
0.3087438938
0.3577592303
0.3492588193
0.34005738
0.3268898213
0.3302627116
0.3445174194
0.3228075322
0.3254337423
0.3272794803
0.3290422505
0.3135273257
0.3070290838
0.3140280732
0.3321828815
0.3080329488
0.2923877402
0.2879453589
0.2972804934
0.3133000162
0.3529165106
0.3146012478
0.2938154552
0.2901729235
0.3040243768
0.3084787452
0.3098573491
0.3430086878
0.3164805675
0.3118903386
0.3264218216
0.3192701078
0.3084885836
0.31523284
0.3077508628
0.3081808102
0.3217496535
0.3068685046
0.2983454864
0.31179042
0.3322569896
0.3311248677
0.3351832471
0.3334027321
0.3398131917
0.3361631349
0.3471632545
0.3632006168
0.3560287455
0.3341764155
0.345887244
0.313843488
0.3180851228
0.3125003636
0.3403025688
0.3278606131
0.3215670084
0.3182446216
0.3231951526
0.3141268408
0.3022361479
0.3262937112
0.3358859144
0.3614446839
0.3325009507
0.3238736897
0.3112173871
0.2965253754
0.2924914764
0.3108228928
0.3309828895
0.3444894283
0.3570867069
0.3477586404
0.3554510258
0.3470331771
0.3354617505
0.3537282452
0.3455016696
0.3424130747
0.3199253016
0.3386556986
0.3457488359
0.3260846418
0.3281812567
0.3405888935
0.3339224259
0.3328102133
0.3528127227
0.3501186212
0.3468125481
0.339128158
0.3502236248
0.3249303521
0.3217111514
0.3170453889
0.3038624876
0.2710025516
0.292989102
0.3184692292
0.3314090166
0.3035514164
0.3176119529
0.3042152766
0.3089418194
0.298842374
0.3079214113
0.3416943051
0.3748058306
0.3400549019
0.3363157484
0.3191078142
0.3078883719
0.3158785195
0.3072946966
0.3057588255
0.3020071137
0.314014279
0.3252184077
0.3108229306
0.3012696359
0.3285776629
0.3289598323
0.3428493468
0.3351977037
0.3316703296
0.3247957483
0.3256169642
0.341203977
0.3571641107
0.3069047533
0.2724894953
0.2859122498
0.2973051113
0.300169079
0.3171481555
0.2999288511
0.3005300071
0.3028394835
0.3228272368
0.3309563323
0.3368322156
0.3365572255
0.3090448402
0.3314573048
0.3068617262
0.2975658576
0.3133710804
0.3450264589
0.3193437233
0.3262119323
0.31962993
0.2935093498
0.2894358025
0.3041428641
0.3193341176
0.3466179381
0.3409118173
0.3365043169
0.3064592873
0.3306651457
0.3464790306
0.3380262038
0.3328020152
0.3074338385
0.3119144083
0.3349305717
0.3258132384
0.3287957453
0.3452194603
0.329718883
0.3340996411
0.3360331398
0.3403673142
0.3642407638
0.3626218435
0.3539589935
0.3480082855
0.3210520322
0.323716928
0.3380738538
0.3095219378
0.3320640731
0.3457473254
0.370003711
0.3424461522
0.3231927256
0.3283289388
0.3410262477
0.3428929047
0.3455933048
0.3211106695
0.3342512234
0.3195070801
0.2961656606
0.2798023544
0.2594450568
0.2781423157
0.3113580048
0.319193952
0.3060765806
0.3473317319
0.3292554765
0.3281844351
0.3204512965
0.3429476216
0.321620815
0.3413712567
0.3300134756
0.2980211187
0.3378960408
0.336600788
0.3158463124
0.2833600795
0.2800153524
0.3103483127
0.3279369036
0.3279786619
0.3211873476
0.3215122008
0.3487410697
0.3022324329
0.2950699574
0.3134245611
0.3155529531
0.3217868702
0.343769918
0.341919734
0.335063025
0.3320033287
0.3508316705
0.3536610466
0.3795151151
0.3852811753
0.3619703301
0.368907154
0.3665943089
0.3423022954
0.3475706853
0.3350900944
0.2933138579
0.2923956883
0.308083313
0.3136140233
0.2997563375
0.2976381917
0.2910480307
0.3090561155
0.3182411839
0.3150015021
0.3294236335
0.3506640086
0.3329798275
0.3149750225
0.3179534282
0.3114926584
0.3294723346
0.3339892765
0.3151841854
0.3055080357
0.2899834378
0.3161455644
0.2955841217
0.2830991272
0.298356241
0.299236689
0.3008749385
0.3062130898
0.3012386022
0.3098678003
0.3086790065
0.3134500966
0.3368167145
0.3206246341
0.3210224529
0.3412327187
0.3204105784
0.3206221906
0.3485688973
0.3329889673
0.3489864212
0.3035245438
0.3356127362
0.3238518614
0.3174514426
0.3211590573
0.3110775452
0.3107938056
0.3284477489
0.3049903443
0.3247348659
0.321915414
0.340763516
0.3503169093
0.3116688945
0.2835793297
0.288968184
0.2993485206
0.2938185886
0.2895918539
0.2953980562
0.3069948064
0.2998752361
0.3226245687
0.320243769
0.3394838367
0.295042171
0.2716279413
0.2991091927
0.3141425481
0.3291550975
0.3211465187
0.3099974867
0.3186996047
0.3217657962
0.307199698
0.3141811142
0.3421978308
0.3244313558
0.3346445388
0.338334758
0.2995915421
0.3354963742
0.3296858964
0.3254813344
0.320331572
0.2986392485
0.3030574178
0.3010341467
0.3125389298
0.3081597907
0.3180697574
0.3182917739
0.3105325829
0.320163262
0.3303623967
0.3173070647
0.3063211008
0.3124493007
0.2993479501
0.2814773446
0.3275630225
0.3422703203
0.3474214593
0.3283848554
0.3300212296
0.313259933
0.3334603105
0.3157249533
0.3317556723
0.345577587
0.3572991037
0.3438901935
0.3182160947
0.3019074492
0.3207490461
0.3052890794
0.313299636
0.3093354311
0.3333854997
0.3277709167
0.3582942092
0.3452461221
0.3508318337
0.3399469328
0.3408810572
0.3428392159
0.3757215076
0.349038938
0.32786863
0.3258239921
0.3295837583
0.325386673
0.3287285771
0.3112091112
0.3222771251
0.3089000568
0.324312927
0.3299984709
0.3270153765
0.3289602495
0.3120460844
0.3178960588
0.332314439
0.3341280812
0.3160176297
0.3173027755
0.3293951127
0.3504304227
0.3486079058
0.3417118803
0.3594982935
0.3263833211
0.3262886669
0.3200539262
0.3341770169
0.3393049027
0.3152974525
0.3226874026
0.3212293868
0.324390737
0.3167388572
0.3572296259
0.3426476232
0.3508139482
0.3228444614
0.3232803334
0.3052819634
0.3055659797
0.3170336914
0.3598728355
0.3365302759
0.3384923543
0.3484255072
0.3192797572
0.3013019506
0.2959527348
0.3199064863
0.3038830682
0.3266256899
0.3313676981
0.3044766827
0.3014215237
0.32718388
0.3229103723
0.3399831008
0.3195800235
0.285581257
0.2723864797
0.3037064679
0.3173566485
0.3378229132
0.3330287399
0.3180572523
0.3215699358
0.3388622362
0.3197264814
0.3333197393
0.3406842117
0.3394494862
0.3303054422
0.3291644343
0.3325883646
0.3193704058
0.3353650174
0.3366146608
0.3646078669
0.3738510075
0.3497521353
0.3285623618
0.356890855
0.3502803895
0.3380809485
0.3233823935
0.3033569792
0.3136960937
0.3127002942
0.3222911218
0.3061701005
0.3044766416
0.298030955
0.3021282517
0.307717354
0.3181047683
0.304853396
0.3139125609
0.3125348902
0.3191454735
0.3175185625
0.3081124915
0.278484761
0.3035352201
0.3054516701
0.3062344299
0.3104274894
0.3052019155
0.3039405889
0.2985805563
0.3201024861
0.3445237214
0.3121883553
0.3533487264
0.3500639794
0.317949072
0.3407700558
0.3183210737
0.3230085751
0.2995032186
0.2916298302
0.3006226184
0.3102142461
0.3170586355
0.3362069927
0.3323863098
0.310103865
0.3189250176
0.3284467647
0.3283909168
0.3215548698
0.3175582787
0.3524330849
0.3077728013
0.3220007142
0.3178945556
0.2993684768
0.317817267
0.3063881107
0.3155879782
0.3491786955
0.3232851486
0.317036878
0.3235538276
0.3173536854
0.3139103955
0.314073001
0.3058864595
0.3058525515
0.3022636614
0.3027713591
0.3055617002
0.2962105349
0.3003975591
0.3098904984
0.3187889791
0.3268360757
0.3245513803
0.3482461164
0.3341213742
0.3229848026
0.3330116247
0.3029962305
0.3133984581
0.3504290365
0.3268631585
0.3199847243
0.3313136772
0.3216576199
0.3306640409
0.3184226355
0.3174479321
0.3098808235
0.3124732474
0.3170836403
0.3356731204
0.33829536
0.3430893339
0.36188272
0.339920518
0.3112966197
0.3080535721
0.3360001602
0.3522973247
0.3271863352
0.3218334257
0.3187992116
0.3243580593
0.3195186487
0.3245697229
0.3077670253
0.3139933641
0.3264358023
0.3012054233
0.3167979218
0.2965486227
0.3059343763
0.3197741859
0.3238953559
0.3303707991
0.3546619605
0.3576360429
0.3291420994
0.3070305065
0.3142453879
0.3255348066
0.3142642784
0.3197611333
0.322064648
0.3213468198
0.3081034045
0.2981824738
0.305529234
0.3315299367
0.3137804316
0.2940084574
0.308860182
0.2936689111
0.3294407319
0.3224506898
0.3268271996
0.308555562
0.3336989274
0.3441136653
0.3415002311
0.3084839789
0.3289321779
0.3236527737
0.3619487301
0.3439068488
0.3321193146
0.3399016424
0.3271194717
0.2940914548
0.294420106
0.2870292977
0.2959208193
0.2949923324
0.2927273888
0.2947680962
0.2998263791
0.3239004181
0.3267730892
0.3437335554
0.3382251215
0.3401525992
0.3468614394
0.3306948203
0.3181144968
0.3110489623
0.3068647452
0.3038808184
0.3184483853
0.3062514284
0.2910817262
0.3124917464
0.3422030751
0.3253718755
0.3534316823
0.3369218851
0.3169069481
0.293365881
0.3128477109
0.3218707138
0.3195328416
0.3273607563
0.3188027973
0.3335848124
0.3265196501
0.3239279998
0.3302157082
0.3051932856
0.2860001763
0.3384927768
0.2972809556
0.2838867757
0.2888784788
0.3284816054
0.3431267263
0.3246126201
0.357006964
0.3492791682
0.3522675153
0.3310053172
0.3135609971
0.3164473216
0.3325720279
0.3430130371
0.3612660475
0.3306384281
0.3136118167
0.3245271195
0.365682567
0.3160855657
0.3169656319
0.3410830922
0.3362304225
0.3384776649
0.3694759786
0.3514940112
0.3206295942
0.2918640271
0.2820270192
0.3085742123
0.329255062
0.3190128074
0.3299367851
0.3218324732
0.330601853
0.3503941555
0.342590849
0.3123854341
0.3235708175
0.3542853107
0.3731769301
0.3731635997
0.3542306526
0.3483577911
0.3268509722
0.3311793336
0.3132698857
0.3372572413
0.3341353104
0.3282595415
0.346194398
0.354186681
0.3354626153
0.3431135528
0.364108603
0.3493445489
0.3484915857
0.3251757106
0.3345669575
0.3480206345
0.3451823954
0.3508887211
0.3352355304
0.3507910609
0.3436899047
0.3519901683
0.3672113208
0.3405381246
0.3163269212
0.3135557259
0.331460287
0.3235342525
0.3355849064
0.3234232272
0.310061392
0.3104278077
0.2943586323
0.308650034
0.307311874
0.306243031
0.328969986
0.3349225736
0.3163878679
0.3301185333
0.3131527385
0.3300175464
0.3502491079
0.3383309939
0.3211908635
0.3577633264
0.3293880368
0.3011924995
0.2866739816
0.2920020689
0.3031035122
0.3034836357
0.3170291447
0.3351130634
0.339634577
0.2886848507
0.3066745396
0.2986080873
0.3122994706
0.3241241542
0.3453489101
0.3636301629
0.3386874413
0.3237239407
0.3000388046
0.2781340111
0.2987219294
0.3253314051
0.3370466785
0.3197434546
0.2974438349
0.2916177812
0.2641850394
0.2739373076
0.2884246453
0.3235890117
0.3253445709
0.3047787282
0.2953147047
0.2965974627
0.3127562622
0.3222989296
0.3600087895
0.3463899495
0.3057075301
0.3085923527
0.3047062802
0.3115654483
0.3204006722
0.3189531436
0.3390463185
0.3181943839
0.3232990702
0.3064682311
0.3002799287
0.3015100144
0.3281791848
0.3560658046
0.3735339102
0.3370427057
0.3231162742
0.3007223325
0.3012704869
0.3084454629
0.3298100817
0.3189072879
0.3246050883
0.3308843911
0.3190534943
0.3037996868
0.3260662788
0.3340982351
0.3244890791
0.2997529465
0.3091100246
0.3469554059
0.316103611
0.3046992997
0.3053882196
0.3429777629
0.3230773917
0.3312188589
0.3070278923
0.2941942429
0.3315568051
0.3259253222
0.3015875095
0.315081765
0.3121496178
0.3149587541
0.3158844334
0.3457791251
0.3525621115
0.3535336589
0.3448288092
0.2898091417
0.3005894486
0.3050166779
0.2964463313
0.288355535
0.30506696
0.321625741
0.3217922775
0.3011241266
0.2982504291
0.304966562
0.3407384834
0.3536475567
0.3493339947
0.3259556032
0.3080129305
0.3106872416
0.3327053762
0.3252777893
0.3063948819
0.3370974159
0.3361794398
0.3173887768
0.3006850388
0.3028057073
0.3126559495
0.3352900684
0.3404001527
0.3434262889
0.3491683047
0.347119877
0.3041123462
0.3252537731
0.3168509137
0.33100948
0.3121840239
0.2944269486
0.3178127002
0.3500086085
0.3412867659
0.31940266
0.3329397385
0.3290481287
0.3274081264
0.3368843383
0.3180699521
0.323861696
0.3303113258
0.3600237309
0.3506717304
0.3302878538
0.3325992336
0.3168724399
0.3164260205
0.3059534028
0.301164336
0.3109873575
0.2923958297
0.3064664337
0.3110064017
0.2993070878
0.3255131443
0.3621692357
0.3306371629
0.3489326337
0.3365620371
0.31043623
0.3221437185
0.3281932413
0.3307342673
0.3259759411
0.3105430425
0.3069254592
0.3350169205
0.3454000116
0.3119571192
0.3143402533
0.3060674913
0.2974657723
0.2956357815
0.3351673268
0.3297663243
0.3254019035
0.3416814192
0.376158565
0.342973199
0.3609071927
0.3445001691
0.3551683352
0.3249137266
0.3458487249
0.3278109725
0.3325799462
0.3457711251
0.3186054865
0.3205381155
0.3428925855
0.3484919586
0.3592319157
0.3422679001
0.3553212375
0.3540640513
0.3610243713
0.354464481
0.349065331
0.3388397155
0.315359194
0.3290461093
0.3282499975
0.3261055563
0.2976571396
0.3043204039
0.2970223898
0.3106564597
0.3342507007
0.3332492605
0.3629568417
0.3799892668
0.3613898788
0.3500315005
0.3697246844
0.3700654158
0.3350941858
0.3348232062
0.3322504887
0.331194304
0.3226098954
0.3043484481
0.3171256777
0.3183402377
0.3161213735
0.308189232
0.3087538246
0.2943248201
0.2942668111
0.3123227575
0.3249544806
0.3483494576
0.3129301211
0.3294616261
0.3166832322
0.3315216583
0.3305893893
0.3076898644
0.2994680552
0.2790584641
0.3057366949
0.323151806
0.321253386
0.3042257512
0.3009671395
0.2980708219
0.3062834894
0.3033231255
0.3223716902
0.2889290994
0.2897415041
0.3063259809
0.3255920379
0.3247516563
0.3122719467
0.2880813133
0.3023705963
0.325706719
0.3105356286
0.3391928099
0.3218650718
0.3071780771
0.3269376506
0.3224919165
0.3167185492
0.3236096452
0.3222291093
0.3319127184
0.329973978
0.3273861604
0.3321450445
0.3445241932
0.3215467026
0.3326443579
0.3021874868
0.3266576522
0.3200330168
0.3463052815
0.3566939702
0.3309788651
0.3120859227
0.3418233489
0.3276479773
0.3170430463
0.3368490298
0.3432415862
0.3563632271
0.355926007
0.3417149732
0.3277008708
0.3175575037
0.3287883643
0.3182234481
0.3063210357
0.3583970741
0.3285615959
0.3105984025
0.3263578256
0.3056630538
0.3248504638
0.3307541769
0.3143112976
0.3006388449
0.3182441055
0.3409726675
0.324910966
0.3214250957
0.3248394046
0.3304686936
0.3343094326
0.3238590223
0.3238217735
0.3484286748
0.374484762
0.3305464625
0.320947237
0.3208068168
0.3131655137
0.2984011607
0.3118626031
0.3094674882
0.3225455606
0.3413753128
0.3447804872
0.3296401522
0.3033897952
0.2985677281
0.2946806539
0.2973147745
0.3171099413
0.3594910283
0.3597692095
0.3555566111
0.3448534915
0.3101527596
0.2906547435
0.2848325631
0.2850350361
0.3039918372
0.2895361959
0.2698411126
0.2773900059
0.2842870016
0.2945104809
0.3220441496
0.3331751372
0.3157402532
0.3178347186
0.3106601323
0.3123097967
0.3007315139
0.3016675252
0.2869355793
0.3000226322
0.3138872064
0.2932107317
0.2679121716
0.2796158241
0.2780513803
0.2927228325
0.294562351
0.3220088675
0.3085512454
0.3342656762
0.3293965518
0.3094585717
0.3064740109
0.299050313
0.3261402155
0.3172712858
0.3481977263
0.3441110947
0.3292518177
0.3160704467
0.2974352611
0.2884639467
0.3046866747
0.2888720989
0.3096740265
0.3196831882
0.321345845
0.3019923459
0.3088795014
0.3150468844
0.3151746915
0.3244997655
0.3281420204
0.3774939211
0.3614654429
0.3450362934
0.3170047699
0.2989379312
0.3313883904
0.3084467645
0.3356763497
0.3282918988
0.3326323538
0.3383913579
0.3162680142
0.3322066878
0.324400942
0.3249331501
0.301925102
0.2967507479
0.3190786559
0.3198872903
0.3276506638
0.3003804729
0.3185643218
0.3191966765
0.3190098825
0.3300910253
0.3380517452
0.3361582878
0.2922626751
0.2692928184
0.2939973132
0.3135379156
0.334934171
0.3292480015
0.3232742578
0.3184256373
0.3110144989
0.3001348461
0.2959013229
0.3001674602
0.2860153446
0.2700331177
0.2856303074
0.3142129066
0.3173896858
0.324139045
0.3154875369
0.3338010726
0.308209063
0.3093335141
0.2967461831
0.3164226129
0.3109376248
0.3050109728
0.3053607804
0.3096862853
0.3161527404
0.3217929756
0.3079668089
0.3128626962
0.2937252967
0.2841990258
0.280335428
0.2892032696
0.2915714207
0.2901909506
0.3077791129
0.3122768111
0.304414905
0.3018529198
0.2992439496
0.309338679
0.3457057603
0.3419584742
0.3712746607
0.351265826
0.325152007
0.3102869764
0.3125211461
0.2938510341
0.3144872567
0.330451766
0.3354189817
0.3146274253
0.3188929563
0.3468464074
0.3469561225
0.3188607386
0.3339175448
0.3228200132
0.3383737388
0.3469354207
0.349614447
0.3581418824
0.3617279669
0.3540749137
0.3575435362
0.3488011059
0.3648857338
0.3529820523
0.333991763
0.3127395881
0.3354039211
0.3345476995
0.3277037422
0.3052316867
0.2995323497
0.2815019131
0.3122745636
0.3148828746
0.331133039
0.3024641453
0.3226558889
0.3287670045
0.3403906438
0.3475183207
0.3559415314
0.3511416788
0.3606422386
0.3535293333
0.3597493403
0.3662662489
0.3052421676
0.2896643163
0.2910295399
0.3036742426
0.2989334704
0.3034183782
0.3701685243
0.373490932
0.3489305597
0.3469286819
0.3420530256
0.3244311098
0.3608841067
0.353234661
0.3564229347
0.3466093241
0.3444663798
0.3439066203
0.3110527132
0.3148274175
0.3319722354
0.3197426311
0.2994370297
0.2890661434
0.3154032749
0.3465872704
0.3410394419
0.3325378004
0.3427628572
0.3452850756
0.3314129001
0.3197422343
0.3292372498
0.348175026
0.3393461933
0.3201093021
0.3169652835
0.3147072632
0.3184006039
0.3263084254
0.3085789372
0.2778804403
0.3361909338
0.3529586791
0.370076942
0.346018603
0.3236914208
0.3106958874
0.3011920232
0.2912520634
0.3001751976
0.328084224
0.3189060165
0.3167273808
0.3622508967
0.3630823466
0.3648907124
0.3726997791
0.3323041897
0.3484788531
0.3193304849
0.3276471746
0.3262370352
0.309486928
0.3404891202
0.3471479799
0.3001606978
0.3258993797
0.3552622077
0.3329924655
0.3269064937
0.3126535923
0.3171110303
0.3415753761
0.3237579307
0.3332451916
0.3310367528
0.3212264729
0.3204651892
0.3204765718
0.3313052778
0.3521192559
0.340251348
0.3064439412
0.2986440053
0.2881164003