/*--------------------------------*- C++ -*----------------------------------*\
| =========                 |                                                 |
| \\      /  F ield         | OpenFOAM: The Open Source CFD Toolbox           |
|  \\    /   O peration     | Version:  2.4.0-MNF                             |
|   \\  /    A nd           | Web:      www.OpenFOAM.org                      |
|    \\/     M anipulation  |                                                 |
\*---------------------------------------------------------------------------*/
FoamFile
{
    version     2.0;
    format      ascii;
    class       volScalarField;
    location    "0.0009";
    object      p_O2;
}
// * * * * * * * * * * * * * * * * * * * * * * * * * * * * * * * * * * * * * //

dimensions      [1 -1 -2 0 0 0 0];

internalField   nonuniform List<scalar> 
5120
(
0.1099606146
0.1080867961
0.09729395991
0.09482589209
0.08770684658
0.09363930103
0.09323293952
0.09638774167
0.08107598313
0.07564150315
0.08108488853
0.08568064119
0.07303886887
0.07158105425
0.07332640549
0.0777661496
0.08752250538
0.0831239418
0.09459188455
0.1084587652
0.07601186209
0.07223801725
0.07844601128
0.08796264602
0.08564539642
0.08310295367
0.07504169272
0.071879539
0.07605006004
0.07443275538
0.08630916419
0.09187206718
0.1020905964
0.0956137
0.08940088376
0.09935356412
0.08784802916
0.0938429022
0.1018372355
0.08385291545
0.1182344007
0.1092238044
0.1093674915
0.1083033183
0.1021633367
0.1069720672
0.103454087
0.09814505833
0.09998012091
0.1077679636
0.09354410495
0.1026482326
0.09226525401
0.07861055169
0.0898070766
0.09778746621
0.0906193716
0.09293310816
0.0944039587
0.09444540228
0.08153702101
0.07992093268
0.09111083723
0.07435812981
0.08106192185
0.08272715415
0.08779232504
0.09042538155
0.1019159957
0.1091357071
0.1055772597
0.09591253911
0.1104302574
0.1132134937
0.09848925486
0.09267858339
0.08796862244
0.07584903603
0.07843212793
0.08214846325
0.0804515753
0.07223310426
0.05556942073
0.06844400023
0.06568248191
0.08831461942
0.08047237481
0.09084806258
0.1003486806
0.1066530351
0.1061848147
0.1075524152
0.08857461812
0.08312303431
0.07329181872
0.08796556393
0.1006135646
0.11604337
0.1024854956
0.1000162581
0.07582476666
0.07092445353
0.08825027583
0.09016095701
0.09305227149
0.08773499479
0.07943725801
0.07879157344
0.08556664756
0.09219730602
0.0992175637
0.08602112817
0.08747665424
0.08266503508
0.07955404951
0.09174632977
0.09764260337
0.09758173928
0.08512857714
0.08243950294
0.09589529123
0.09912920308
0.1023880597
0.09189050529
0.0739479063
0.08044924641
0.08081658989
0.08443053991
0.0893433358
0.08629366858
0.09443637663
0.09717928792
0.0934278986
0.08581969624
0.07503494488
0.0794005132
0.09079966396
0.07877423647
0.08102221625
0.09444331989
0.09697544163
0.1123970231
0.1027863948
0.1079241301
0.1185746311
0.1162419599
0.1025946073
0.08510795361
0.09732514897
0.1134483947
0.1059772415
0.0929172661
0.09864489135
0.09402796512
0.1013478155
0.09933425635
0.1132869876
0.1197370633
0.1200650919
0.08930147626
0.09006230384
0.08647515759
0.09249697575
0.08506398826
0.08620896634
0.09759032955
0.09973945198
0.08749918182
0.09023821094
0.0849877715
0.09686029976
0.09895569654
0.1001766396
0.1090400794
0.0996104531
0.08863533033
0.08974979907
0.08737060617
0.08036409327
0.08696722563
0.1036391011
0.09490152846
0.09497709563
0.08655567927
0.08995420892
0.0864567766
0.09614382172
0.09885597932
0.1012603729
0.09352097051
0.08752078249
0.1061255759
0.1096873127
0.09118446041
0.09611919242
0.09701777072
0.09287418237
0.08770035155
0.08580688596
0.09538775562
0.08574645444
0.09135769962
0.09104334023
0.0883210855
0.08114371048
0.0856202301
0.08157663339
0.08480471115
0.08241692739
0.09356905549
0.09094596322
0.07732329629
0.07419707489
0.07937254371
0.09327665705
0.09887230399
0.09296852444
0.09297740773
0.0932074725
0.08528368474
0.0942523982
0.08717034173
0.09686894876
0.0986552267
0.1087017389
0.0976435364
0.09365760987
0.09083082939
0.09979007383
0.0988035859
0.0863455507
0.09407954773
0.08695385493
0.08605023331
0.09267441961
0.1022073386
0.0890954846
0.09649421967
0.08981705783
0.07868251994
0.06575209887
0.07630262245
0.08656748723
0.08571972401
0.08681960921
0.08758438031
0.09569112281
0.08781226334
0.08935590009
0.08902286898
0.08577194569
0.06842895877
0.07086992431
0.07295563559
0.08387886241
0.0947328418
0.08703461479
0.08277686715
0.08185989482
0.06561341124
0.08169206167
0.09297421756
0.1080217563
0.10875552
0.1120038332
0.1062967055
0.09289055918
0.09925373213
0.08615573275
0.08235637739
0.08308384892
0.07438986179
0.07961977781
0.08698580533
0.0876306916
0.0793350075
0.08257996778
0.08316687972
0.07182979974
0.07629362447
0.09364320074
0.08410428208
0.08837037715
0.08802407095
0.08531411684
0.07438733675
0.07588770607
0.08069441588
0.08964818841
0.1004473331
0.1087038427
0.1102204504
0.1039202141
0.09318375701
0.08788634366
0.09251373271
0.1051858925
0.0864409465
0.08965804262
0.1034669782
0.08681233265
0.08967287049
0.09566897178
0.107464383
0.1098004021
0.1022504266
0.08698554035
0.08824880025
0.09387281063
0.0948310791
0.08629580917
0.08321391392
0.09303203777
0.1014385263
0.1013945383
0.09442466005
0.08124632973
0.08723223492
0.08964990473
0.08238659259
0.1263203862
0.1282750594
0.1045061138
0.09255613075
0.09829807353
0.09050501044
0.08726321657
0.08565898498
0.08996678251
0.08576879348
0.08392463227
0.07966164471
0.0950335236
0.1026769251
0.09891011918
0.1020174739
0.09827809544
0.1014145335
0.09190066945
0.1157887787
0.08792271
0.1013698163
0.107717496
0.08438932963
0.08081912244
0.08384670457
0.08942174024
0.09587188543
0.09682502468
0.08787672367
0.07780312158
0.0806273281
0.08498347963
0.09216949632
0.09129528549
0.08717648364
0.1090234482
0.1028860742
0.09851522152
0.08909705258
0.1032793627
0.0973831078
0.08978794114
0.09867544048
0.1086990952
0.1027718509
0.08656814484
0.08291068072
0.07839576229
0.08762273587
0.0971399664
0.08937563451
0.08463904961
0.09659179874
0.09444590611
0.09527629218
0.1066887729
0.09614431942
0.111908581
0.1177152099
0.081998229
0.07878734458
0.08404921045
0.09841890421
0.07743424672
0.07897625442
0.09159533839
0.09991755294
0.07184515475
0.07783965292
0.07795353029
0.08121028166
0.08293777364
0.0809731569
0.09118608651
0.1140974986
0.09751104481
0.09327863653
0.09268749711
0.08635809744
0.0788965466
0.09766367304
0.09852544996
0.09856201047
0.1050221902
0.08868638294
0.08340226346
0.07667837283
0.07887772816
0.07924703343
0.07766370855
0.08511402456
0.07907067443
0.07173971913
0.08778969086
0.07676457194
0.09410917155
0.08319941251
0.07953741976
0.07961696558
0.07468486171
0.07737646942
0.08196766359
0.09184840027
0.09636414858
0.09686367112
0.08629677124
0.08703414984
0.07979630021
0.08145145829
0.07506793216
0.08520294893
0.1022882203
0.1051710056
0.09141505377
0.07189492761
0.06288227671
0.07910857118
0.08480795014
0.08053405153
0.09827962328
0.1038199128
0.1096823836
0.097913669
0.07713877703
0.07886569441
0.09526031756
0.1002414134
0.099349232
0.09570330865
0.09436802592
0.08744691749
0.07979338107
0.0899920013
0.09301926617
0.1148392507
0.1055342154
0.09496038705
0.1015479486
0.09417497352
0.09036539341
0.08078341697
0.07287783585
0.09071260343
0.1082295424
0.1066735389
0.09976680932
0.1002316783
0.1044569021
0.1043453597
0.1051810665
0.1127486176
0.1076067088
0.09892924139
0.08812704264
0.08549603177
0.09769552494
0.09728402711
0.08976940559
0.08789703443
0.08133666156
0.09080705027
0.09243388535
0.07979289449
0.06974393183
0.07328937771
0.07286325722
0.09677150428
0.09819095545
0.1006825426
0.109882946
0.09495763443
0.09062821629
0.1033755897
0.08048741328
0.07600577405
0.08249967161
0.08217636468
0.09936148946
0.09630990549
0.08947705224
0.08390215537
0.07861077041
0.09192841081
0.08525467483
0.0852916516
0.07391176221
0.06691944663
0.07189488834
0.08736455572
0.08032088268
0.08679792879
0.07929623988
0.0897050737
0.09192447707
0.1024786257
0.1151366549
0.1242243754
0.1185222262
0.09349214785
0.09082966662
0.0775136504
0.07222867515
0.08060443702
0.07653394078
0.07093465588
0.08299970785
0.07511714458
0.07125063363
0.07422534098
0.08438329833
0.08508750907
0.0947181422
0.08546548769
0.07277718861
0.07698080403
0.08059225126
0.08253597919
0.07991594574
0.08793135662
0.08611395691
0.09720740072
0.08203826258
0.0808502767
0.0823302434
0.08915721475
0.09212848004
0.1034500433
0.1118224822
0.1120654431
0.09362873483
0.1071368911
0.1052023895
0.1018242956
0.09248073121
0.09701488947
0.0880806098
0.07422677386
0.07079498631
0.08814335123
0.1075246616
0.08029983682
0.08612342538
0.08779249339
0.09006926468
0.0916798984
0.09152583919
0.07719999154
0.07208958141
0.08396792397
0.1119188186
0.09753185338
0.07804407582
0.08362981153
0.07677481324
0.0728782471
0.0799959791
0.08431610192
0.09340337263
0.1038258599
0.09746005516
0.09512629563
0.09451798434
0.08435124212
0.0790382935
0.09720838432
0.09665080165
0.09650034266
0.09040213612
0.07900165744
0.06620948946
0.0791097982
0.08714861404
0.08550593851
0.101454318
0.09620224278
0.07843213854
0.07953770956
0.09145619905
0.08948957682
0.07999999624
0.0931628829
0.08422398001
0.08874863368
0.08750520958
0.09232977707
0.09140016645
0.09429545056
0.08925541183
0.1024657101
0.1132061413
0.1106095146
0.1009874078
0.09446965516
0.07032704911
0.08547634793
0.08880235997
0.09239810198
0.07583621919
0.06953851928
0.08606950754
0.08182286018
0.09270014195
0.08520579609
0.09526745215
0.09170235148
0.0921710172
0.08982150867
0.09083136458
0.08197181614
0.09387119627
0.1071211389
0.1077438363
0.08604164329
0.09696253534
0.09338372522
0.07792993787
0.07430169335
0.0772251972
0.08537170895
0.09846806035
0.09970884298
0.09271857227
0.08283134806
0.07641410351
0.07119048826
0.0755293397
0.09360455719
0.1114679281
0.1000593404
0.1054332709
0.09683641758
0.1087251618
0.0999357643
0.09422985306
0.09342259866
0.1152938372
0.1034208627
0.111021181
0.09699112953
0.09433879095
0.08271048345
0.09656567305
0.08630556818
0.08562546213
0.07916347407
0.09099505085
0.1062821868
0.1058690891
0.09968927705
0.09654956671
0.09236247171
0.08869599104
0.09096917288
0.09134627993
0.0924745444
0.09082971276
0.09398477309
0.08466558026
0.0900136527
0.09869254297
0.09041873979
0.09530201409
0.09542826841
0.09996994885
0.09898208686
0.09568314887
0.08587594105
0.08744242251
0.09332316425
0.09117478202
0.09715761482
0.09894559802
0.09263033031
0.08696861717
0.08042790648
0.08281448289
0.1013603309
0.09386499592
0.1024447384
0.07776239504
0.0840832802
0.09741679192
0.09458757716
0.08741159324
0.08933190373
0.06452156801
0.071490757
0.08228805026
0.0830363417
0.08389491017
0.08804217028
0.08837226424
0.09513299673
0.09449612446
0.1019721909
0.1136528136
0.09602332419
0.0847407535
0.07268224921
0.1067571786
0.09615206771
0.09445498656
0.09662721754
0.1027187527
0.09024480223
0.09196702028
0.09694330444
0.07230392453
0.0776205309
0.09010813929
0.1002361335
0.08872888157
0.0856748454
0.08617894823
0.08480957035
0.08610458654
0.08849531355
0.1060339543
0.1111921766
0.0953623709
0.08404134683
0.09093823686
0.08349681558
0.07675827859
0.08891688416
0.09276914131
0.09155500216
0.1032878034
0.1033248294
0.09079813296
0.08657278134
0.08519860632
0.08721069179
0.08552827051
0.08294843215
0.07834584486
0.07244131732
0.08203934063
0.08808567457
0.09841799477
0.1000837248
0.08482356641
0.08685998414
0.09596301017
0.09187795653
0.09905511137
0.1185506146
0.1148708917
0.1140223952
0.1057567728
0.103800808
0.1007028887
0.08492187672
0.09720108611
0.07938797573
0.07269958883
0.07671588075
0.08392885902
0.1093979849
0.09479709617
0.09551288953
0.1016385726
0.08445767379
0.08461908581
0.08878317651
0.09367657392
0.0896709946
0.09018435128
0.09421859935
0.1079597359
0.1026799461
0.09492942449
0.09343352134
0.08163060122
0.09283845132
0.10287973
0.1108823516
0.1089500943
0.1018573951
0.09249682377
0.08518507317
0.08389013406
0.08809999559
0.09660660769
0.09286570413
0.07555338674
0.07780454404
0.083827672
0.0753856349
0.07197659847
0.07602352877
0.08262396858
0.08044843138
0.08363982043
0.1001602916
0.09704849107
0.09191771201
0.0888587378
0.0972991864
0.08446850284
0.08183829643
0.08193841206
0.08102445455
0.07458268723
0.08467230219
0.09430542121
0.09961640571
0.08854011628
0.07750202196
0.07656910771
0.08294589536
0.08151715924
0.100720887
0.1194362361
0.1011011026
0.1062183421
0.09108796265
0.09122970082
0.08297903927
0.08023925132
0.08314584917
0.08350120985
0.08408029691
0.08309650457
0.08180136785
0.09680024409
0.09481982626
0.09212287593
0.08834056417
0.0860403815
0.08293112339
0.08147452661
0.08049965027
0.08325937189
0.07957738135
0.07694749465
0.07128350413
0.07023713421
0.06745533032
0.08579446236
0.08990878216
0.09200687857
0.08069154885
0.09587087883
0.08661919689
0.08510867074
0.08792265367
0.09337131065
0.09448937786
0.09680751036
0.09323365017
0.09003688404
0.09846830225
0.0905031074
0.08888177639
0.09068018929
0.08348715786
0.08964795069
0.08566729216
0.08952813666
0.08784833744
0.100340516
0.09603484419
0.08880233611
0.09277553317
0.08857003703
0.08525374091
0.08459086248
0.08775527021
0.07629617855
0.0837180891
0.08216729029
0.07689980349
0.09121596947
0.09038094961
0.08374568722
0.08760314502
0.08989715707
0.08533284697
0.08272757604
0.1037189738
0.104564834
0.1135499108
0.1006939231
0.08956428474
0.108525221
0.09981644947
0.09082604406
0.08378737145
0.08617677423
0.09028750317
0.1075228203
0.1115935155
0.09583825249
0.08319311921
0.09972726602
0.1008377217
0.08990448421
0.09424918657
0.1069373196
0.09533408697
0.1008715793
0.1027012687
0.09599429841
0.09023502936
0.09231884799
0.09041996415
0.1018276303
0.1093085904
0.106054934
0.09897562937
0.08947988758
0.08082191016
0.09508039285
0.08573431818
0.08276288507
0.08277631117
0.09795327072
0.106894933
0.08109022824
0.08673659224
0.09248641478
0.0883590442
0.09965584609
0.09960577772
0.1062847805
0.09929613498
0.0998381211
0.1031584161
0.09913173908
0.08573429984
0.07234938482
0.07989976798
0.1000359256
0.09143043074
0.0849472498
0.1055958827
0.08693980726
0.08730411389
0.09282425963
0.09635599178
0.09862657931
0.1000624983
0.1039652546
0.1072351981
0.09763178252
0.08778209288
0.08105975309
0.1024374043
0.1246104043
0.1202550724
0.09794501942
0.09407142744
0.08625273386
0.092666641
0.0902438652
0.0982094256
0.09639183568
0.09278598037
0.1020819417
0.1008206387
0.09391963361
0.1038946221
0.1024838784
0.0966666581
0.1125501925
0.1015945119
0.1013970303
0.09761899179
0.09707710795
0.09670041101
0.09364157469
0.08830473183
0.08631787652
0.07592310913
0.07387967441
0.07845706346
0.08407221758
0.09164322064
0.09417217948
0.08999749328
0.09707914326
0.0911995982
0.07885853177
0.08097916528
0.07795474799
0.08103250879
0.08202089035
0.08171408689
0.08722304511
0.08975693698
0.09309531016
0.09301150771
0.09345312362
0.105316137
0.0987678887
0.09939393605
0.1013296581
0.09561679288
0.08782496301
0.08864275844
0.07201870216
0.0802689813
0.0928946522
0.0836791809
0.09283996257
0.09776717756
0.1011776801
0.09600903698
0.09434560343
0.08804950835
0.09531390637
0.09459666186
0.1048751354
0.103483365
0.1031894127
0.1038207349
0.08967033052
0.08833711132
0.08685582683
0.09108893612
0.086917383
0.08168141712
0.07632229666
0.09064242824
0.09947923391
0.1009079176
0.1030410317
0.09127839621
0.09051944086
0.08656255696
0.103555507
0.09316002734
0.09137282371
0.07371775529
0.07489064819
0.07320451417
0.08513896462
0.09395488539
0.09830305149
0.09550586883
0.0839262989
0.08096831457
0.0925400397
0.09792489156
0.1119469101
0.1121928489
0.1139376707
0.1150324341
0.1047490963
0.1077660858
0.09825752533
0.0841743303
0.08658404522
0.09244708192
0.09861815969
0.1062362112
0.09167389496
0.09316997639
0.1006244421
0.09699968294
0.09858505604
0.1013990836
0.09173692498
0.08908781702
0.08158960759
0.07665203575
0.08646467118
0.1084891053
0.1148920149
0.1111277842
0.09515682344
0.09985091067
0.09874103729
0.09255546354
0.09920393402
0.09845762267
0.09560638947
0.08620438737
0.1098403161
0.1083020607
0.09704988602
0.09678128479
0.0978149219
0.1045334292
0.1009129477
0.0918273301
0.08720907368
0.08638727676
0.07332464641
0.08571902232
0.08863780606
0.07992867853
0.1009471709
0.09464631259
0.1021208397
0.09885591405
0.1042249478
0.1183266607
0.0862318638
0.08848922162
0.08858690214
0.09202087298
0.08219352496
0.09687459767
0.1071901837
0.1053230962
0.09340299832
0.103185345
0.09927913792
0.1004061068
0.09649250224
0.1066529815
0.09651748564
0.09134269762
0.08959888407
0.09572901978
0.09051559442
0.08336585921
0.09867816521
0.0910721001
0.08706928438
0.09131421933
0.1031269239
0.09070218267
0.07869384955
0.0709787446
0.06992463113
0.06455949151
0.06975058045
0.08046173944
0.09484584473
0.09660297875
0.084583097
0.08868693345
0.09296360083
0.1054225044
0.09300317427
0.09862484011
0.08073278873
0.08468141199
0.07905531903
0.07687983705
0.07387565846
0.07538502774
0.07181562419
0.08571571547
0.092638654
0.08906148629
0.08639982807
0.07659271925
0.07421758585
0.06466105702
0.05755111961
0.06411052037
0.06654628161
0.07673697054
0.08291582866
0.08021527357
0.1058394214
0.09893567008
0.0937644779
0.08893248499
0.07850983623
0.07570848739
0.08392731685
0.08603145009
0.08018041094
0.08098441963
0.07732276249
0.08408166566
0.08716613373
0.08745898356
0.08553463885
0.08070703368
0.08002460683
0.08277787416
0.07626309607
0.0949036196
0.1032921949
0.1081408012
0.0917889471
0.08424945481
0.09559558459
0.08953727415
0.09242701187
0.09694881576
0.07636379001
0.06104443875
0.07074302603
0.0766951592
0.09077050965
0.09699546008
0.09136811594
0.09989766821
0.0942789948
0.09425120041
0.1039528312
0.1110512238
0.1025073466
0.1154507007
0.1155314086
0.107590138
0.1036777991
0.1087164216
0.1005029442
0.08865533813
0.1081499983
0.10893269
0.09518497244
0.09228784525
0.07912540294
0.07015576014
0.07186685464
0.07779175615
0.09853895587
0.1118809287
0.1015907714
0.09878398361
0.1229402742
0.1195231699
0.1093686753
0.1103853833
0.1177200996
0.107739081
0.09633951602
0.09985860345
0.09778585721
0.09653303602
0.09096909809
0.0932009293
0.09493852802
0.09790758278
0.09999371494
0.1037878231
0.102159349
0.09485362873
0.1012741135
0.1051933592
0.07717561921
0.08228016781
0.07670447548
0.08558893488
0.08965171579
0.1027901498
0.09180939227
0.08580702978
0.08094027676
0.0787082409
0.08685138381
0.08403996194
0.09989274924
0.09064196561
0.1028917403
0.1037783424
0.1083695574
0.08926189056
0.09208218926
0.08701933402
0.09550615557
0.09074425631
0.1001521156
0.09329203715
0.09674058189
0.08392882272
0.08702595278
0.1049902459
0.1100162212
0.09928312922
0.09670483513
0.09663538181
0.09997105871
0.09415975788
0.08241608569
0.09207129806
0.1168795923
0.1033734053
0.1043441477
0.1067583163
0.08091712281
0.1025620256
0.1055456281
0.1061190229
0.08907887447
0.1008340722
0.09766086312
0.1003072645
0.106434812
0.0988382102
0.08987540411
0.09961506611
0.1100098444
0.1013996871
0.09862961997
0.08742415617
0.08755817903
0.09757179451
0.1076280233
0.08402046339
0.09107440603
0.09632665547
0.1011505964
0.1020905631
0.1032356649
0.09351469332
0.1048269125
0.09306390428
0.08532206159
0.08820350356
0.09337902339
0.09931738246
0.09905073548
0.1060539383
0.1047273339
0.09306402139
0.08086975409
0.08324576837
0.09621624448
0.1026673774
0.08771070498
0.07723062885
0.08438607057
0.08342690342
0.0992385531
0.1119001361
0.1094430295
0.101288036
0.1029660524
0.101508869
0.09857649941
0.09331606267
0.09239560157
0.08442198967
0.0918127282
0.0919182017
0.09014198
0.08804248689
0.09684097681
0.09986951513
0.086110565
0.0965866353
0.1103361399
0.1071972619
0.09142223901
0.07520912272
0.07959210709
0.08565173805
0.08514233362
0.07336077444
0.06800602479
0.06000068405
0.06870194675
0.07465737426
0.08729490159
0.09861088386
0.1025512417
0.08927701713
0.07968177143
0.08126235632
0.07600592754
0.08351782065
0.08654756951
0.09831358223
0.08981915114
0.09456231322
0.09380082801
0.0914510792
0.07734185329
0.08905222978
0.08566538881
0.08656610332
0.08233146797
0.09260376592
0.08755976713
0.07636086233
0.08173931752
0.07761129699
0.08954564202
0.08199276395
0.0682621391
0.07184455309
0.08292877953
0.08702655237
0.09335729228
0.09115028138
0.09954054386
0.1031387687
0.1115693634
0.1007584458
0.1033585742
0.1101901973
0.1052425738
0.09399021471
0.09156431091
0.09900865116
0.09153626565
0.08194674812
0.07280463068
0.07733896451
0.0962088222
0.08751390066
0.08792369299
0.09273517447
0.09969977069
0.09575494742
0.1011157667
0.09929455973
0.09885284512
0.09600859813
0.08742693973
0.09007841178
0.09260106032
0.1006410175
0.0985198254
0.07611535912
0.07399467255
0.07870938114
0.08374052391
0.08263212626
0.08165578275
0.08788544826
0.08384104527
0.09416279134
0.0883694019
0.09587512062
0.08881350363
0.09254751422
0.08988455462
0.0840778431
0.09296789419
0.08674359662
0.08479542503
0.09544415175
0.1006488432
0.09070186121
0.0885712772
0.08683936016
0.0748262499
0.0684721848
0.06909289517
0.07920562026
0.09053286039
0.09531186328
0.09059810191
0.08146762939
0.08397178243
0.08773935591
0.08906887167
0.08641381956
0.0904566862
0.09111078575
0.07965446915
0.08087291451
0.08398812131
0.08890100021
0.09029316226
0.08023392041
0.07683483962
0.07066553594
0.07822468971
0.07033207954
0.06560363527
0.06711525011
0.08121209289
0.06916841245
0.07689333273
0.06599638781
0.07102452102
0.06837929654
0.07921872685
0.07261752615
0.06805358703
0.06816634237
0.07698785247
0.09267978068
0.08350181398
0.07048501192
0.06492076821
0.07064976644
0.07963973712
0.08108363341
0.08311509244
0.09430877568
0.1000694225
0.08727402713
0.07606680539
0.07474677975
0.07949242067
0.09803658274
0.08849297769
0.1002639557
0.09662018108
0.1064264977
0.09029536341
0.0997848179
0.1082480674
0.1114811014
0.1141366055
0.09377357517
0.09566610364
0.09333644567
0.08771320427
0.09234202163
0.09424749365
0.1012430251
0.1115018279
0.1073123614
0.1146681783
0.1233486733
0.1342924306
0.1233984745
0.1175819567
0.09755846582
0.09483204555
0.08625258831
0.0980608098
0.09273013884
0.09792352642
0.09753238816
0.1022978335
0.09791740078
0.09539602598
0.09301010567
0.08921022775
0.09951177977
0.09944015416
0.101629664
0.1029544521
0.1039672111
0.09907543758
0.1006832044
0.1078134482
0.09726770215
0.09010150638
0.1000644399
0.09731388838
0.09665685547
0.09474837976
0.1029436007
0.08633672187
0.08452122125
0.08937236526
0.1108277323
0.121587739
0.09378836498
0.08592828917
0.07352574245
0.07118043212
0.07961572295
0.07749677399
0.08473098947
0.08161484488
0.08690352453
0.09429562304
0.09244382688
0.07532346689
0.08009870187
0.09751266142
0.09818058247
0.0975276109
0.09681273702
0.11079667
0.0989620839
0.09399569545
0.08491758228
0.08904528478
0.0900051874
0.09363045486
0.09445858295
0.08695300917
0.09586702363
0.09929638582
0.1046599671
0.0971011273
0.09640389356
0.08469891176
0.0891620797
0.08314695142
0.09262451893
0.1047287427
0.1021699006
0.1084025156
0.09177125137
0.09928063893
0.09412237545
0.08697619444
0.08130475695
0.07661338237
0.07695434743
0.0827352967
0.09251538591
0.09247058989
0.1083434361
0.1057602706
0.1079712949
0.1113665163
0.1137104186
0.1022092691
0.110893459
0.116029924
0.09375132195
0.0807454551
0.08599748568
0.08686379925
0.09551596718
0.09554496369
0.08217472708
0.07888311676
0.08636539512
0.08542601473
0.08574779559
0.09271284404
0.09551847156
0.1050910505
0.1100629568
0.09756220634
0.1076504975
0.1000075498
0.1062489983
0.1246831783
0.1184060783
0.1182467757
0.1103551486
0.1021806326
0.1040387438
0.09035802173
0.1016058228
0.1046909474
0.09109677143
0.08361340816
0.08808935041
0.09623589303
0.09223795913
0.08443567895
0.09739772434
0.1037701257
0.1037301371
0.1014782185
0.1146019325
0.08903962075
0.103051362
0.1021048339
0.1104730441
0.122283798
0.1028797268
0.0950332919
0.07595641932
0.06689615009
0.06129518954
0.06946474449
0.08607499312
0.07894440946
0.08901885035
0.08856808218
0.08967774956
0.08374745599
0.08210047229
0.08186790066
0.09854855625
0.1057885652
0.1120350821
0.1161814959
0.1096802125
0.1091968747
0.1044726854
0.09432367618
0.09385314151
0.08498388343
0.08353794822
0.08513613316
0.09042093041
0.09150539226
0.08827962477
0.07896767256
0.07624950406
0.08728134362
0.101307848
0.08632044346
0.08518612525
0.1023218475
0.09471472798
0.08907630974
0.09998630045
0.1000238391
0.09979137126
0.09690939588
0.0905244433
0.08753726789
0.08586397974
0.09155683659
0.09366952678
0.09310134055
0.1081303498
0.09465270891
0.09759412762
0.0964452176
0.09370950465
0.09846594145
0.1049662788
0.0896925785
0.08957693343
0.08078304707
0.07778658672
0.07377933119
0.08428010449
0.08519645396
0.0820354725
0.09173401732
0.09943361682
0.09142979677
0.09124272067
0.0833329416
0.07483806443
0.08259573555
0.09541080335
0.1027141682
0.09621134631
0.08719043654
0.0932876831
0.07368381326
0.07833321656
0.08742137829
0.09630511003
0.09189886363
0.08344393403
0.08142299791
0.08704153991
0.09815221414
0.09669016005
0.09313965303
0.09490889372
0.1000775355
0.1104467333
0.1119596136
0.09864013627
0.08357807634
0.08828440084
0.08654458565
0.08584005764
0.1058741934
0.1010300796
0.1081154853
0.09484927737
0.09744063927
0.08392328454
0.08352730703
0.08842439442
0.08694804028
0.09425535876
0.1057256766
0.09265544892
0.09024937498
0.07820498366
0.07365677064
0.1047926575
0.1079102502
0.09735163813
0.1089964887
0.107784642
0.1126792046
0.09064091547
0.08357084229
0.0874787054
0.09314751145
0.08784665937
0.09270867184
0.07141577685
0.08187704006
0.07741868549
0.07628066454
0.08153080404
0.08673992524
0.08062095347
0.08555993275
0.08557331034
0.09441832436
0.1173051299
0.1142816095
0.1168508826
0.08393887109
0.09375674354
0.08398288544
0.07065259008
0.06405054378
0.07823425418
0.08449020351
0.0943544969
0.07787044711
0.08517477893
0.0875805324
0.08251523975
0.08419209922
0.09548796639
0.1035745607
0.09862783441
0.08947215733
0.08157633631
0.08506920484
0.07518469907
0.1121766652
0.1042296158
0.1043818685
0.08449927429
0.08390612332
0.09501405703
0.08914953996
0.09078823661
0.07360639982
0.08297946434
0.08188477663
0.09735519214
0.104110254
0.09922630505
0.1097062838
0.08190938961
0.0760997896
0.09191901738
0.1053313359
0.11368103
0.09118724741
0.09216157159
0.09579757568
0.1023452369
0.09602353504
0.09644462073
0.09772326992
0.1114679505
0.1190933495
0.1089051925
0.0960422349
0.09243027107
0.1002234836
0.09436856143
0.08981115417
0.09294234599
0.1084314039
0.100912508
0.09412801034
0.1063642361
0.07442519303
0.084422349
0.09458885309
0.0977220951
0.09309595121
0.08502058291
0.09153659275
0.09406416713
0.08566115741
0.08489504472
0.1070867522
0.1078772404
0.1004963012
0.1118894722
0.1178505518
0.1110269002
0.1062130828
0.1008613965
0.08494900495
0.08124642246
0.0991856689
0.08229610576
0.08466306733
0.08759169139
0.0840892173
0.09964216921
0.09100734653
0.09960905613
0.09913059457
0.0978262669
0.0887754656
0.08487508316
0.09568153091
0.1005503705
0.09377962497
0.09701500035
0.1056489004
0.1022102533
0.08938811764
0.09800404551
0.08646962078
0.09438583794
0.07696255048
0.08994412011
0.1021008632
0.1107126625
0.1061431047
0.09650023829
0.08745280575
0.07999530384
0.08493225684
0.08786164446
0.09721283737
0.09426582848
0.09602612412
0.1012437292
0.1007092833
0.1123921937
0.09771272346
0.09337474283
0.07756190179
0.08072066271
0.08523293657
0.1081247896
0.1015573266
0.1103571716
0.09737199815
0.1007761922
0.1052770626
0.09525936475
0.0977184684
0.08798569397
0.08381193343
0.0788577062
0.07593612116
0.07031686841
0.07850630848
0.07951528523
0.09055345015
0.0824486123
0.09591854134
0.117089567
0.1228175559
0.1123776252
0.1167753687
0.1097120565
0.09292359355
0.09359270355
0.09182525098
0.0964956434
0.100168459
0.1066426213
0.1004284465
0.08894463224
0.08528886234
0.1064070866
0.1145887939
0.1017633332
0.1003979256
0.1052690496
0.1098882379
0.1065111213
0.1125955771
0.10129815
0.1027832434
0.1110027259
0.1205611844
0.1044780301
0.1020555273
0.1004967759
0.1015096156
0.0909929342
0.09168792804
0.08983872059
0.08711731211
0.07824699207
0.0860717955
0.0898411659
0.09636278559
0.107070734
0.09542123907
0.09524934009
0.08015179954
0.07759350214
0.08682368244
0.08025394103
0.0821931049
0.06840089596
0.08640406535
0.08918003214
0.08283833884
0.08584785833
0.0761382627
0.08641545852
0.08827798604
0.09875766434
0.1059471984
0.1236517787
0.1177239599
0.08774092602
0.08885286087
0.09048812417
0.07687302631
0.08570203018
0.07664486587
0.08519724266
0.08435422449
0.09487483077
0.08347622568
0.100255334
0.09980443118
0.1050937008
0.1039408248
0.1045037506
0.1041881688
0.0937734988
0.07972324597
0.08540280973
0.07951978483
0.09900470777
0.1007260177
0.0971815184
0.09245137591
0.07942522147
0.07790226193
0.08308692472
0.08584872408
0.07951138562
0.07852341662
0.08286460264
0.0838771539
0.07656571202
0.08478149834
0.07244229858
0.08691078096
0.07983153307
0.08664467353
0.09000744925
0.08649520505
0.09305898971
0.09336329171
0.08272556987
0.08080227226
0.08151785285
0.0865338873
0.09026511819
0.07790359014
0.0911535629
0.09819749427
0.09164632849
0.07837952149
0.07376038305
0.07796666608
0.09779751373
0.09664401891
0.09266917565
0.09986665533
0.08846050984
0.1002045339
0.09872221574
0.08898041604
0.08546740471
0.0925498061
0.0909944219
0.09174449239
0.09269252699
0.1123434518
0.09411768462
0.07405682964
0.06900374906
0.07199371031
0.09336999924
0.1098020299
0.1123163522
0.105702966
0.1061544361
0.09750871919
0.09412557937
0.08008064432
0.07672087472
0.08651404591
0.07741149212
0.0737688501
0.06830388336
0.07752356689
0.08352801667
0.07691075429
0.07313894291
0.08108119369
0.08867470732
0.08730599081
0.09526189958
0.09798979682
0.1063422048
0.09796721851
0.08260240856
0.09234905793
0.1036423021
0.09994420428
0.09493395626
0.08096645954
0.09144832845
0.09869590251
0.1046787737
0.1087310525
0.1148860653
0.09915168846
0.1039090837
0.1049835511
0.1018440389
0.09605191923
0.1053634345
0.1137707139
0.1014223388
0.09633647007
0.09886341326
0.09056136917
0.07487887346
0.08160137912
0.07436250214
0.0830725522
0.08216849105
0.09529979519
0.0989000705
0.09333206517
0.08847838067
0.09472110092
0.09330234481
0.1024172728
0.09549746349
0.1008215586
0.08699636144