/*--------------------------------*- C++ -*----------------------------------*\
| =========                 |                                                 |
| \\      /  F ield         | OpenFOAM: The Open Source CFD Toolbox           |
|  \\    /   O peration     | Version:  2.4.0-MNF                             |
|   \\  /    A nd           | Web:      www.OpenFOAM.org                      |
|    \\/     M anipulation  |                                                 |
\*---------------------------------------------------------------------------*/
FoamFile
{
    version     2.0;
    format      ascii;
    class       volScalarField;
    location    "0.0009";
    object      rhoM_mixture;
}
// * * * * * * * * * * * * * * * * * * * * * * * * * * * * * * * * * * * * * //

dimensions      [0 -3 0 0 0 0 0];

internalField   nonuniform List<scalar> 
5120
(
5.1548144e-06
5.0432272e-06
4.8854368e-06
4.7223376e-06
4.870608e-06
4.957176e-06
4.8721456e-06
4.8752976e-06
4.6122752e-06
4.5644576e-06
4.7584528e-06
4.5411168e-06
4.468344e-06
4.552832e-06
4.6659952e-06
4.673448e-06
4.7647952e-06
4.7568384e-06
4.9608576e-06
5.2541696e-06
5.0560656e-06
5.2080688e-06
5.2117632e-06
5.0825968e-06
5.0278816e-06
5.0028752e-06
4.971552e-06
5.0486256e-06
5.0411856e-06
4.873256e-06
4.8413392e-06
4.9985872e-06
5.016128e-06
5.0341984e-06
4.9109216e-06
4.8540752e-06
4.7015808e-06
4.8429152e-06
4.8960672e-06
4.8137232e-06
4.8237088e-06
4.7084144e-06
4.713168e-06
4.8677936e-06
4.941664e-06
4.9645392e-06
4.874768e-06
4.8498128e-06
4.9778816e-06
5.124008e-06
5.1134288e-06
5.186744e-06
4.9035328e-06
4.8483008e-06
4.9300896e-06
5.0756736e-06
4.963544e-06
4.9427872e-06
4.7955888e-06
4.6669776e-06
4.833408e-06
4.722376e-06
4.7500048e-06
4.3695824e-06
4.4030112e-06
4.3982192e-06
4.520928e-06
4.687256e-06
4.6675584e-06
4.658504e-06
4.6707488e-06
4.604344e-06
4.8880592e-06
5.0336816e-06
4.9178704e-06
4.879624e-06
4.8169264e-06
4.7638128e-06
4.718088e-06
4.5469808e-06
4.6505984e-06
4.6915312e-06
4.5316224e-06
4.6740032e-06
4.5241312e-06
4.690408e-06
4.7138512e-06
4.5352656e-06
4.7191216e-06
4.8051472e-06
4.9486128e-06
4.8635696e-06
4.9348304e-06
4.732904e-06
4.5633856e-06
4.461344e-06
4.6292352e-06
4.6844928e-06
4.5654912e-06
4.744064e-06
5.0730896e-06
4.9503296e-06
5.0831264e-06
5.1357232e-06
5.0820544e-06
4.9773904e-06
4.7281632e-06
4.789272e-06
4.8721712e-06
4.749424e-06
4.7323872e-06
4.652704e-06
4.5480016e-06
4.6548224e-06
4.6410016e-06
4.8535456e-06
5.079368e-06
5.2717616e-06
5.2441968e-06
5.2122928e-06
4.8403056e-06
4.9481472e-06
4.9752464e-06
4.9709968e-06
4.9450336e-06
4.9423344e-06
4.9216288e-06
4.841352e-06
4.7786416e-06
4.7595248e-06
4.79564e-06
4.6276976e-06
4.8307088e-06
4.6707744e-06
4.5193392e-06
4.5533104e-06
4.7552368e-06
4.720232e-06
4.6739904e-06
4.6713296e-06
4.9650944e-06
5.210576e-06
5.1973232e-06
5.367384e-06
5.110704e-06
5.1643728e-06
4.9874144e-06
4.7669264e-06
4.6674944e-06
4.9225216e-06
4.8221072e-06
4.7498768e-06
4.6839888e-06
4.6303328e-06
4.862536e-06
4.9869232e-06
5.2462e-06
5.2892256e-06
5.0463664e-06
4.7238496e-06
4.5799312e-06
4.535808e-06
4.571368e-06
4.6484288e-06
4.7515168e-06
4.7886912e-06
4.6292864e-06
4.4885072e-06
4.809448e-06
4.6734352e-06
4.856736e-06
4.807872e-06
4.722312e-06
4.8487536e-06
4.8344288e-06
4.7749344e-06
4.6973568e-06
4.6639024e-06
4.8089952e-06
4.9014272e-06
4.7870896e-06
4.9268736e-06
4.9492064e-06
4.7764976e-06
4.7451104e-06
4.5522256e-06
4.704656e-06
4.799232e-06
4.928928e-06
4.7791072e-06
4.9497232e-06
4.9688272e-06
5.088384e-06
4.9082864e-06
4.984224e-06
4.9996464e-06
4.9369744e-06
4.7690704e-06
4.853016e-06
4.80888e-06
4.6437008e-06
4.5225168e-06
4.588392e-06
4.7228416e-06
4.6654784e-06
4.7228672e-06
4.6352272e-06
4.70428e-06
4.4816096e-06
4.526224e-06
4.6750112e-06
4.6176608e-06
4.62616e-06
4.5729952e-06
4.5596656e-06
4.6441536e-06
4.7509616e-06
4.84608e-06
4.829624e-06
4.7765232e-06
4.5054416e-06
4.34924e-06
4.6281888e-06
4.8051472e-06
4.5829936e-06
4.4554928e-06
4.5272448e-06
4.5161232e-06
4.421496e-06
4.5777232e-06
4.5362992e-06
4.6181008e-06
4.4603104e-06
4.6569536e-06
4.4964768e-06
4.5719104e-06
4.41412e-06
4.5618608e-06
4.502328e-06
4.3816864e-06
4.3961136e-06
4.5645472e-06
4.6182032e-06
4.7276592e-06
4.8376704e-06
4.9216416e-06
4.9598624e-06
4.6681264e-06
4.71008e-06
4.774896e-06
4.7366368e-06
4.5746096e-06
4.5825664e-06
4.5995648e-06
4.6250368e-06
4.699424e-06
4.7382512e-06
4.536312e-06
4.4954176e-06
4.4109808e-06
4.8047072e-06
4.868968e-06
4.8737088e-06
4.7312896e-06
4.710016e-06
4.7164096e-06
4.854592e-06
4.8417792e-06
4.7876064e-06
4.947592e-06
4.7627024e-06
4.8270272e-06
5.0145648e-06
4.8769376e-06
4.8232688e-06
4.7058816e-06
4.5687968e-06
4.6309904e-06
4.5422656e-06
4.7404464e-06
4.5565136e-06
4.6803584e-06
4.9019184e-06
4.8902416e-06
5.0416896e-06
5.1155856e-06
4.8466864e-06
4.8052624e-06
4.9832416e-06
4.8291072e-06
4.8747552e-06
4.9348048e-06
4.7791456e-06
4.7903312e-06
4.7207232e-06
4.8057664e-06
4.9396352e-06
4.7600544e-06
4.712728e-06
4.7063472e-06
4.695704e-06
4.67868e-06
4.7376832e-06
4.788704e-06
4.7483136e-06
4.7201808e-06
5.0039728e-06
4.90352e-06
4.849296e-06
4.6277104e-06
4.6389088e-06
4.6160592e-06
4.7095376e-06
4.8035968e-06
4.9699248e-06
4.957176e-06
4.7345184e-06
4.5894256e-06
4.6691216e-06
4.433728e-06
5.3667904e-06
5.4119472e-06
5.17924e-06
5.1532e-06
5.182392e-06
4.9571248e-06
4.7615792e-06
4.7126896e-06
4.7956016e-06
4.7791712e-06
4.6745072e-06
4.7313792e-06
4.9693952e-06
5.036872e-06
4.9954224e-06
4.9608704e-06
5.0209328e-06
4.9884992e-06
4.9332288e-06
5.1250032e-06
4.5400064e-06
4.7094864e-06
4.8917536e-06
4.88864e-06
4.8019952e-06
4.784984e-06
4.7775184e-06
4.9427616e-06
5.1016752e-06
5.1675888e-06
4.960392e-06
4.9699504e-06
4.9720688e-06
5.0576032e-06
5.1570224e-06
4.943432e-06
5.1112848e-06
5.1936672e-06
5.1819648e-06
4.6946576e-06
5.1064544e-06
4.9581968e-06
4.7791456e-06
4.7169648e-06
4.7525504e-06
4.7089696e-06
4.7015552e-06
4.8179728e-06
4.8355264e-06
4.6017088e-06
4.633032e-06
4.8360432e-06
4.7595504e-06
4.9672896e-06
4.8307216e-06
4.7759808e-06
4.746712e-06
4.7074192e-06
5.0681824e-06
5.2546736e-06
4.4178272e-06
4.3641584e-06
4.4273728e-06
4.4794144e-06
4.3928592e-06
4.5113568e-06
4.390728e-06
4.4475488e-06
4.4997184e-06
4.558128e-06
4.6766512e-06
4.8275696e-06
4.7420096e-06
4.7260704e-06
4.8456016e-06
4.944376e-06
4.7669264e-06
4.6749984e-06
4.616576e-06
4.6192368e-06
4.8950464e-06
4.9667088e-06
5.0910704e-06
5.0528112e-06
5.3455808e-06
5.3429712e-06
5.1612208e-06
5.186744e-06
5.0618656e-06
4.7797136e-06
4.6596144e-06
4.7568512e-06
4.6521872e-06
4.5299696e-06
4.7286928e-06
4.7218208e-06
4.7648336e-06
4.769096e-06
4.93864e-06
5.092736e-06
4.5114336e-06
4.8079616e-06
4.907304e-06
4.831264e-06
4.9003296e-06
4.7180368e-06
4.8604944e-06
4.7090464e-06
4.4752288e-06
4.3785088e-06
4.4688736e-06
4.3726576e-06
4.7430176e-06
4.8997616e-06
4.942864e-06
4.599112e-06
4.4668064e-06
4.5512432e-06
4.5336896e-06
4.607056e-06
5.024136e-06
5.1112976e-06
5.1271984e-06
4.9720688e-06
4.9147056e-06
4.643688e-06
4.6574704e-06
4.927416e-06
4.9810976e-06
5.0852448e-06
5.1012224e-06
5.2176144e-06
5.0369488e-06
4.8897248e-06
4.7499408e-06
4.8280096e-06
4.7531056e-06
4.7738624e-06
4.9422832e-06
4.9869616e-06
5.161776e-06
5.2032384e-06
4.9530032e-06
5.0209712e-06
5.0735552e-06
5.1840576e-06
5.0134928e-06
4.8811744e-06
4.891224e-06
4.6871792e-06
4.6319088e-06
4.7647312e-06
5.0145136e-06
5.128232e-06
5.2329728e-06
5.223944e-06
5.5055792e-06
5.4162864e-06
5.2898576e-06
5.0799488e-06
4.8764464e-06
4.89236e-06
4.7265744e-06
4.5278512e-06
4.403528e-06
4.4465664e-06
4.5618608e-06
4.8482496e-06
4.8418816e-06
4.6723504e-06
4.6431072e-06
4.6664864e-06
4.440664e-06
4.7095376e-06
4.4183824e-06
4.5018368e-06
4.6575216e-06
4.799424e-06
4.8860048e-06
4.874832e-06
4.5835744e-06
4.552768e-06
4.5416336e-06
4.6882768e-06
4.841352e-06
4.6697408e-06
4.445016e-06
4.3361024e-06
4.472128e-06
4.6517088e-06
4.7532208e-06
4.7144064e-06
4.7372688e-06
4.7335232e-06
4.9386272e-06
4.9274288e-06
4.9470624e-06
4.934792e-06
4.772184e-06
4.4841936e-06
5.0358384e-06
5.0289792e-06
4.7888064e-06
4.713864e-06
4.6097424e-06
4.542808e-06
4.52736e-06
4.6293888e-06
4.7324512e-06
4.7956784e-06
4.7563216e-06
4.6622624e-06
4.6670544e-06
4.4922528e-06
4.5262752e-06
4.5134752e-06
4.6123008e-06
4.656424e-06
4.7367008e-06
4.7866112e-06
4.5708512e-06
4.6164864e-06
4.6494496e-06
4.6574448e-06
4.7929536e-06
5.0161152e-06
5.0506672e-06
4.9778048e-06
4.9114e-06
4.7147824e-06
4.99116e-06
5.1994288e-06
4.9220432e-06
4.8349072e-06
4.77332e-06
4.6048608e-06
4.4162256e-06
4.4789744e-06
4.5098192e-06
4.6420608e-06
4.8944272e-06
4.7738624e-06
4.6218848e-06
4.6888448e-06
4.8806576e-06
4.7780864e-06
4.8253872e-06
4.74148e-06
4.6761344e-06
4.7526144e-06
4.9619296e-06
4.8327888e-06
5.0390416e-06
5.0113744e-06
4.8067872e-06
4.6415184e-06
4.7222736e-06
4.8912496e-06
5.109632e-06
5.0974e-06
4.6526912e-06
4.59848e-06
4.5878624e-06
4.5087216e-06
4.5331984e-06
4.6420864e-06
4.5964e-06
4.7186432e-06
4.7420096e-06
4.4758096e-06
4.4072864e-06
4.6888832e-06
4.5634496e-06
4.6739904e-06
4.6585296e-06
4.7371664e-06
4.5698176e-06
4.746776e-06
4.85516e-06
4.6659824e-06
4.2908304e-06
4.2828224e-06
4.3157856e-06
4.4395536e-06
4.5649744e-06
4.5548864e-06
4.8158032e-06
4.703144e-06
4.6038144e-06
4.8009488e-06
5.0123952e-06
4.8561552e-06
4.7833824e-06
4.5989968e-06
4.5118864e-06
4.6080256e-06
4.6207616e-06
4.5421248e-06
4.2089904e-06
4.1829632e-06
4.6903568e-06
4.6181392e-06
4.4990992e-06
4.575656e-06
4.5581024e-06
4.5368544e-06
4.5304864e-06
4.5140304e-06
4.803648e-06
4.7143424e-06
4.759448e-06
4.8040368e-06
4.8821696e-06
4.7137488e-06
4.7599776e-06
4.9884736e-06
4.9566592e-06
4.9066848e-06
4.902952e-06
4.7344928e-06
5.2611056e-06
5.1548528e-06
5.0119168e-06
4.7707104e-06
4.4991888e-06
4.4800592e-06
4.5788848e-06
4.6128432e-06
4.8348816e-06
4.9193824e-06
5.2121392e-06
5.1319392e-06
5.0846e-06
5.045824e-06
4.9480832e-06
4.9512608e-06
5.4130192e-06
5.4464992e-06
5.5575568e-06
5.43592e-06
4.5734864e-06
4.4699072e-06
4.3720768e-06
4.3784704e-06
4.663864e-06
4.9721072e-06
4.9226496e-06
5.100112e-06
4.9677936e-06
4.8966096e-06
4.8402928e-06
4.802576e-06
4.8982112e-06
4.8211376e-06
4.9077312e-06
4.9093456e-06
4.8360176e-06
4.7642784e-06
4.5852016e-06
4.6749984e-06
5.0703008e-06
5.130944e-06
5.2010688e-06
5.0852448e-06
5.133024e-06
4.93908e-06
4.9300384e-06
4.9948672e-06
5.0267456e-06
5.0485104e-06
5.1341088e-06
4.9810592e-06
5.04532e-06
4.8891312e-06
4.9077568e-06
4.734544e-06
4.8333696e-06
5.0660768e-06
5.0581456e-06
5.0580944e-06
4.6665248e-06
4.4571328e-06
4.7791328e-06
4.7419328e-06
4.506552e-06
4.6128432e-06
4.4896176e-06
4.624016e-06
4.7477968e-06
4.75844e-06
4.703648e-06
4.9029264e-06
4.930064e-06
5.0214112e-06
4.9114128e-06
5.0161152e-06
4.995384e-06
5.0145392e-06
4.551192e-06
4.5374224e-06
5.0161024e-06
4.8859664e-06
4.9598112e-06
5.064488e-06
5.0023328e-06
4.8577824e-06
4.7818064e-06
4.776472e-06
4.7138e-06
4.7546944e-06
4.7376832e-06
4.731264e-06
4.7498896e-06
4.7584144e-06
4.6898784e-06
4.6930816e-06
4.8216544e-06
4.9332416e-06
5.1734016e-06
5.1558352e-06
4.8790432e-06
4.699992e-06
4.6627792e-06
4.5352784e-06
4.5241312e-06
4.82912e-06
4.9173152e-06
4.8700272e-06
5.0299744e-06
5.1994672e-06
5.1474768e-06
4.9758272e-06
4.77124e-06
4.6431712e-06
4.6298416e-06
4.6803072e-06
4.7191088e-06
4.7510128e-06
4.59104e-06
4.6037888e-06
4.9980576e-06
5.1085728e-06
5.127224e-06
5.0374272e-06
5.0777792e-06
4.9964816e-06
4.8194976e-06
4.9214752e-06
5.0091792e-06
5.2945472e-06
5.4189088e-06
5.2217744e-06
5.0538576e-06
4.7887552e-06
4.876408e-06
4.7500048e-06
4.7733968e-06
4.848288e-06
4.782904e-06
5.0618144e-06
4.87956e-06
4.7376704e-06
4.8062192e-06
4.917328e-06
5.0204416e-06
5.0666576e-06
5.116064e-06
4.8780096e-06
4.7919456e-06
4.8450592e-06
5.0246528e-06
4.9853216e-06
4.8046816e-06
4.9066976e-06
4.8987536e-06
4.7414288e-06
4.7116304e-06
4.9130016e-06
4.8890928e-06
4.9417024e-06
4.854656e-06
4.82168e-06
4.7047456e-06
4.7440384e-06
4.7445808e-06
4.8481984e-06
4.759512e-06
4.872688e-06
4.8742896e-06
4.9194976e-06
4.9582992e-06
4.7021616e-06
4.9093712e-06
4.7483648e-06
4.8211632e-06
4.7493728e-06
4.7089952e-06
4.5931712e-06
4.756296e-06
4.6978608e-06
4.8987408e-06
4.8243536e-06
4.969976e-06
4.7797008e-06
4.647408e-06
4.7217568e-06
4.7966608e-06
5.0283216e-06
5.0092176e-06
4.7600544e-06
4.5278384e-06
4.7164992e-06
4.737256e-06
4.8530416e-06
4.8460544e-06
4.8763952e-06
4.9534432e-06
4.854656e-06
4.8695104e-06
4.7632576e-06
4.8589312e-06
4.8785776e-06
4.756864e-06
4.7844672e-06
4.7860432e-06
4.7568512e-06
5.0628864e-06
4.7770144e-06
4.7419328e-06
4.463488e-06
4.3184208e-06
4.4683056e-06
4.4273728e-06
4.4550016e-06
4.6149744e-06
4.636248e-06
4.8397888e-06
4.73196e-06
4.7670288e-06
4.786688e-06
4.653272e-06
4.4885072e-06
4.5076624e-06
4.4869568e-06
4.605416e-06
4.6686688e-06
4.6282784e-06
4.734544e-06
4.7749216e-06
4.8631168e-06
4.6861584e-06
4.6643808e-06
4.7616432e-06
4.8360048e-06
4.7137872e-06
4.6059328e-06
4.6393744e-06
4.6234352e-06
4.472e-06
4.47364e-06
4.7993344e-06
4.9157264e-06
5.0645136e-06
4.8110368e-06
4.8041648e-06
4.7451744e-06
4.5528064e-06
4.4326944e-06
4.2764672e-06
4.2972112e-06
4.12932e-06
4.2642608e-06
4.3949904e-06
4.746776e-06
4.7882128e-06
4.8870512e-06
4.7484032e-06
4.7164864e-06
4.6808752e-06
4.66916e-06
4.57988e-06
4.6149232e-06
4.7466992e-06
4.9167088e-06
4.714808e-06
4.6240032e-06
4.9039856e-06
4.888072e-06
4.9199632e-06
4.8190192e-06
4.6861584e-06
4.588896e-06
4.4921248e-06
4.5324896e-06
4.4825792e-06
4.4826432e-06
4.677104e-06
4.6303328e-06
4.647344e-06
4.6058816e-06
4.7684896e-06
4.8200784e-06
4.8333312e-06
4.85352e-06
4.7307728e-06
4.6564112e-06
4.7642784e-06
4.7647952e-06
4.880632e-06
4.7498768e-06
4.6478864e-06
4.6304096e-06
4.6872944e-06
4.5098192e-06
4.6707872e-06
4.6638896e-06
4.6144576e-06
4.7446448e-06
4.8450464e-06
4.7849968e-06
5.147464e-06
5.1128992e-06
5.028928e-06
5.0012736e-06
5.1452688e-06
5.1946624e-06
5.1058736e-06
5.0729616e-06
4.9496976e-06
4.8142272e-06
4.6335872e-06
4.4858592e-06
4.4885584e-06
4.6803712e-06
4.8131424e-06
4.4326944e-06
4.2610832e-06
4.5171824e-06
4.5921632e-06
4.9306448e-06
4.6101824e-06
4.665944e-06
4.7137488e-06
4.7573424e-06
4.7770016e-06
4.893872e-06
4.95232e-06
4.8067616e-06
4.6718208e-06
4.8396992e-06
4.9331648e-06
5.0075648e-06
4.9374528e-06
4.8381104e-06
4.7706592e-06
5.015624e-06
4.71008e-06
4.5564752e-06
4.5086832e-06
4.6558816e-06
4.923128e-06
4.8843264e-06
4.90188e-06
5.010832e-06
5.0894688e-06
5.1744992e-06
5.3455808e-06
5.099608e-06
4.8190064e-06
4.9948928e-06
4.8886016e-06
4.8561936e-06
4.69148e-06
4.819032e-06
4.7770656e-06
4.74148e-06
4.7149104e-06
4.7154144e-06
4.7435472e-06
4.725464e-06
4.7239392e-06
4.7345568e-06
4.9885504e-06
4.774392e-06
4.5135136e-06
4.4847872e-06
4.338648e-06
4.3976128e-06
4.6112544e-06
4.778112e-06
4.8567488e-06
4.9067232e-06
4.8307344e-06
4.848224e-06
4.9002912e-06
5.0522432e-06
5.1032768e-06
4.9630016e-06
4.9348688e-06
4.7807856e-06
4.8136976e-06
4.9184e-06
4.6368032e-06
4.6214192e-06
4.8562448e-06
4.9210736e-06
5.0103152e-06
5.0501632e-06
4.828048e-06
5.028928e-06
4.8647184e-06
4.7850096e-06
4.7536224e-06
4.7802176e-06
4.854592e-06
4.8838224e-06
4.6074704e-06
4.7142784e-06
4.724392e-06
4.7249472e-06
4.5427312e-06
4.7456912e-06
4.71008e-06
4.7653632e-06
4.683536e-06
4.7451616e-06
4.9120064e-06
5.0762416e-06
4.916824e-06
4.843496e-06
4.7536992e-06
4.7521104e-06
4.9677936e-06
4.81052e-06
4.8758784e-06
4.7467888e-06
4.5820624e-06
4.7654144e-06
4.6883408e-06
4.6176352e-06
5.172368e-06
5.025712e-06
4.9790048e-06
4.9285136e-06
4.893432e-06
4.8854368e-06
4.9364448e-06
4.8891568e-06
5.1171232e-06
4.8317552e-06
4.57244e-06
4.6569152e-06
4.6856416e-06
4.7531696e-06
4.8679472e-06
4.819032e-06
4.9162432e-06
5.118144e-06
5.2621776e-06
5.2287232e-06
4.9157392e-06
4.9120192e-06
4.7206976e-06
4.6792224e-06
4.7026144e-06
4.5766896e-06
4.5368288e-06
4.6872688e-06
4.7526144e-06
4.7509744e-06
4.8715648e-06
4.7923856e-06
4.6956784e-06
4.7381872e-06
4.8306704e-06
5.0841856e-06
4.9975792e-06
4.9396736e-06
4.704784e-06
4.80844e-06
5.0512096e-06
4.9778688e-06
4.8869872e-06
4.601632e-06
4.5671056e-06
4.6951744e-06
4.688264e-06
4.6633216e-06
4.8716416e-06
4.7744048e-06
4.6591616e-06
4.6873072e-06
4.8185664e-06
4.86216e-06
5.2064544e-06
5.1766816e-06
5.1888752e-06
4.8376064e-06
4.8068e-06
5.0389776e-06
4.5655296e-06
4.772248e-06
4.8200912e-06
4.9694336e-06
4.6623136e-06
4.6080512e-06
4.7626512e-06
4.8434192e-06
4.7414032e-06
5.031512e-06
4.881136e-06
4.9534176e-06
4.770104e-06
4.498544e-06
4.3088624e-06
4.1000384e-06
4.2063552e-06
4.4300464e-06
4.47736e-06
4.3981552e-06
5.210136e-06
5.05232e-06
4.8971392e-06
4.8780096e-06
5.0693184e-06
5.0799744e-06
4.9620448e-06
4.7186944e-06
4.480072e-06
4.5497184e-06
4.665e-06
4.5714192e-06
4.4193904e-06
4.4246864e-06
4.4699072e-06
4.5581024e-06
4.6154784e-06
4.8885888e-06
4.827544e-06
5.1283088e-06
4.5548992e-06
4.6255792e-06
4.6617584e-06
4.5799184e-06
4.664936e-06
4.8222352e-06
4.6304224e-06
4.8949952e-06
5.014552e-06
5.1474512e-06
5.1506416e-06
5.1050064e-06
5.1406304e-06
4.8574192e-06
4.8292608e-06
4.786752e-06
4.5853424e-06
4.8531056e-06
4.8950464e-06
4.5039168e-06
4.7588928e-06
4.820544e-06
4.8035456e-06
4.7705952e-06
4.7360816e-06
4.636184e-06
4.7706464e-06
4.8998e-06
4.64476e-06
4.8099904e-06
4.887064e-06
5.0671872e-06
4.8487792e-06
4.7398528e-06
4.6643808e-06
4.5825536e-06
4.6511024e-06
4.532592e-06
4.5490608e-06
4.7068384e-06
4.9969984e-06
4.845008e-06
4.5655296e-06
4.5044336e-06
4.5086576e-06
4.567144e-06
4.6261344e-06
4.4385328e-06
4.4348768e-06
4.3387248e-06
4.4311568e-06
4.6904592e-06
4.941224e-06
4.8609984e-06
4.9731408e-06
4.9752336e-06
5.0740976e-06
5.1989888e-06
4.9800256e-06
5.1192288e-06
4.7297008e-06
5.0713856e-06
4.9656368e-06
5.0400496e-06
5.0139968e-06
5.01556e-06
4.7802176e-06
4.8402928e-06
4.8710608e-06
5.1176144e-06
4.904528e-06
4.8774544e-06
4.7760064e-06
4.5724784e-06
4.3976256e-06
4.6340912e-06
4.8588032e-06
4.79236e-06
4.7456016e-06
4.7232944e-06
5.00812e-06
4.8651584e-06
4.953392e-06
5.0766688e-06
5.1016624e-06
4.820544e-06
4.5888832e-06
4.8173792e-06
4.9640608e-06
4.8599136e-06
4.8785264e-06
4.9746912e-06
5.0873504e-06
5.0352576e-06
4.941728e-06
5.0033792e-06
5.0390032e-06
4.911464e-06
5.0411216e-06
5.0692928e-06
4.4013712e-06
4.631456e-06
4.7218336e-06
4.8382e-06
4.7621728e-06
4.7361072e-06
4.683032e-06
4.5624416e-06
4.719728e-06
4.8286288e-06
4.8541008e-06
4.8461568e-06
4.8801408e-06
4.8838736e-06
5.1415616e-06
5.0495824e-06
5.05276e-06
4.7504704e-06
4.5421376e-06
4.4156576e-06
4.9013888e-06
5.079936e-06
5.0794064e-06
4.9114768e-06
5.0002144e-06
4.7026656e-06
4.826472e-06
4.9906048e-06
5.0522304e-06
5.1601232e-06
5.3094528e-06
5.1229616e-06
4.9619296e-06
4.904528e-06
4.8742896e-06
4.7478224e-06
5.1670208e-06
5.0405792e-06
5.0320672e-06
4.8668112e-06
5.0343008e-06
5.0640096e-06
5.1218896e-06
5.1059248e-06
4.9619552e-06
5.2106144e-06
5.4917328e-06
5.2717104e-06
5.207928e-06
5.135168e-06
4.9316656e-06
4.8163328e-06
4.7865728e-06
4.6431072e-06
4.5719232e-06
4.3976384e-06
4.4837152e-06
4.5814944e-06
4.75844e-06
4.7606096e-06
4.5920992e-06
4.7802048e-06
4.8530032e-06
4.8652224e-06
4.7924112e-06
4.701568e-06
4.8088928e-06
4.9646416e-06
4.9247552e-06
4.9545024e-06
5.0182848e-06
4.8582992e-06
4.8056768e-06
4.8322464e-06
5.0538192e-06
4.8965584e-06
4.6612032e-06
4.807872e-06
4.8880976e-06
4.8429024e-06
4.6336e-06
4.7946448e-06
4.8338992e-06
4.8721712e-06
4.966696e-06
5.1351296e-06
5.035736e-06
4.8896608e-06
4.8530032e-06
5.0140352e-06
4.9837584e-06
4.8849456e-06
4.9062192e-06
4.6724144e-06
4.5337024e-06
4.494888e-06
4.7191216e-06
4.5432224e-06
4.76588e-06
4.7988048e-06
4.433792e-06
4.4943328e-06
4.8030416e-06
4.7461952e-06
4.7600416e-06
4.4959856e-06
4.4103872e-06
4.3620016e-06
4.5846848e-06
4.6314688e-06
4.6644448e-06
4.5927312e-06
4.769664e-06
4.805792e-06
4.8366112e-06
4.8918432e-06
4.999736e-06
4.8382e-06
4.6729696e-06
4.6713552e-06
4.649048e-06
4.6389472e-06
4.6957808e-06
4.9529264e-06
4.7568896e-06
5.143176e-06
5.1511456e-06
5.0278688e-06
4.6920608e-06
4.8913392e-06
4.8977072e-06
4.9141632e-06
4.6591232e-06
4.6553648e-06
4.6319856e-06
4.6203088e-06
4.6086192e-06
4.6065136e-06
4.689904e-06
4.5884176e-06
4.4805376e-06
4.609136e-06
4.8126512e-06
4.6883152e-06
4.558632e-06
4.5246224e-06
4.611216e-06
4.4857952e-06
4.5628176e-06
4.526664e-06
4.7546688e-06
4.8906944e-06
4.9709328e-06
4.919408e-06
4.82004e-06
4.663296e-06
4.633032e-06
4.4593024e-06
4.4678272e-06
4.5607888e-06
4.873256e-06
4.7080256e-06
4.4917232e-06
4.7446448e-06
4.811024e-06
4.7823488e-06
4.7955888e-06
4.711656e-06
4.659576e-06
4.6335488e-06
4.6718336e-06
4.751e-06
4.7780992e-06
4.70636e-06
4.844e-06
4.9295984e-06
4.8042032e-06
4.65964e-06
4.781328e-06
4.8807216e-06
4.4077008e-06
4.5017728e-06
4.618152e-06
4.6420352e-06
4.7552368e-06
4.8035456e-06
4.75472e-06
4.9656752e-06
4.671304e-06
4.5262624e-06
4.5729952e-06
4.6516448e-06
4.8158288e-06
4.7711888e-06
4.8312128e-06
4.7546944e-06
4.6616816e-06
4.5915568e-06
4.3885968e-06
4.236632e-06
4.661216e-06
4.6426032e-06
4.8338992e-06
4.8742896e-06
4.8599264e-06
5.0411472e-06
4.9300768e-06
4.8710736e-06
4.874264e-06
4.7637104e-06
4.8492832e-06
4.945512e-06
4.7446704e-06
4.7712272e-06
4.8328528e-06
4.823824e-06
5.0267968e-06
4.8152864e-06
4.6909504e-06
4.6250752e-06
4.365256e-06
4.4216112e-06
4.6038784e-06
4.5167296e-06
4.7457552e-06
4.7452512e-06
4.8876192e-06
4.6017472e-06
4.5990608e-06
4.6681776e-06
4.6862608e-06
4.5762624e-06
4.4822032e-06
4.5704112e-06
4.672944e-06
4.7042288e-06
4.6830448e-06
4.4163152e-06
4.4832624e-06
4.5114208e-06
4.6059712e-06
4.5459344e-06
4.459832e-06
4.620296e-06
4.6064752e-06
4.701064e-06
4.7260448e-06
4.9136336e-06
5.0401008e-06
4.891288e-06
4.7106224e-06
4.7770144e-06
4.8902032e-06
4.8869616e-06
4.9135568e-06
5.0049424e-06
5.0405024e-06
5.0118016e-06
4.8826992e-06
4.7127536e-06
5.2595424e-06
5.1724064e-06
4.9843008e-06
5.2552928e-06
5.0969216e-06
5.2690624e-06
5.174448e-06
5.0320288e-06
5.1303376e-06
5.4151248e-06
5.5288304e-06
5.3827296e-06
4.991664e-06
5.0411344e-06
5.0422064e-06
5.191032e-06
5.1580688e-06
5.0310976e-06
5.1952816e-06
5.2956832e-06
4.6803328e-06
4.6165504e-06
4.5342064e-06
4.5251776e-06
4.358824e-06
4.4751904e-06
4.57616e-06
4.8216288e-06
5.0304784e-06
5.0899856e-06
5.3296672e-06
5.2600592e-06
5.4390848e-06
5.4093504e-06
5.1271984e-06
4.941728e-06
4.917264e-06
4.8641376e-06
4.900304e-06
4.9821568e-06
4.4629968e-06
4.3939312e-06
4.5878496e-06
4.9502272e-06
4.9220432e-06
5.2090512e-06
5.0623696e-06
4.8004192e-06
4.4385584e-06
4.5220128e-06
4.546464e-06
4.6144448e-06
4.5831088e-06
4.441232e-06
4.6352016e-06
4.6128816e-06
4.5029216e-06
4.5799568e-06
4.5363248e-06
4.4130224e-06
4.9593456e-06
4.702136e-06
4.5862608e-06
4.5841552e-06
4.810016e-06
4.7547712e-06
4.7074704e-06
4.9195104e-06
4.9147056e-06
4.981136e-06
4.783472e-06
4.644192e-06
4.6904208e-06
4.865248e-06
4.8737472e-06
4.9795088e-06
4.7249856e-06
4.9210352e-06
4.9205568e-06
5.1490656e-06
4.8476688e-06
5.027288e-06
5.2371456e-06
4.9864064e-06
4.988008e-06
5.0820928e-06
4.9348816e-06
4.6580384e-06
4.43272e-06
4.51828e-06
4.7903312e-06
5.012408e-06
4.9088032e-06
5.2053056e-06
4.9969856e-06
5.0798976e-06
5.2451664e-06
5.2594784e-06
4.9470752e-06
4.9343008e-06
5.1478912e-06
5.0687888e-06
5.0252464e-06
4.889208e-06
4.7977968e-06
4.7297264e-06
4.9863936e-06
5.019912e-06
5.228736e-06
5.0124336e-06
4.939648e-06
5.0273392e-06
5.2308416e-06
5.014552e-06
5.0990144e-06
5.2701472e-06
5.095888e-06
5.0852192e-06
4.9072016e-06
5.0533024e-06
5.323184e-06
5.3497664e-06
5.4087952e-06
5.0862656e-06
5.118712e-06
4.9821312e-06
4.9885504e-06
4.9396096e-06
4.7791072e-06
4.5570176e-06
4.5219744e-06
4.7164864e-06
4.7488944e-06
4.9039984e-06
4.818464e-06
4.9161792e-06
5.0197968e-06
4.9018032e-06
4.9129888e-06
5.090968e-06
4.8577824e-06
5.1473488e-06
5.1345872e-06
5.1419888e-06
5.217448e-06
4.9363808e-06
4.7855264e-06
4.8615536e-06
4.7159696e-06
4.4811056e-06
4.5884816e-06
4.6383664e-06
4.5746096e-06
4.4906256e-06
4.5161232e-06
4.6085552e-06
4.6308752e-06
4.71752e-06
4.9104048e-06
5.029936e-06
4.6414416e-06
4.7843904e-06
4.6642912e-06
4.6202192e-06
4.7669008e-06
4.965624e-06
4.9879568e-06
4.8540624e-06
4.7855392e-06
4.6697024e-06
4.6478864e-06
4.7079488e-06
4.857808e-06
4.880128e-06
4.7722736e-06
4.669728e-06
4.6149744e-06
4.515e-06
4.3752928e-06
4.4592384e-06
5.016128e-06
4.8051728e-06
4.7058048e-06
4.7450848e-06
4.6510384e-06
4.7642272e-06
4.7270656e-06
5.0193696e-06
4.9056512e-06
4.636752e-06
4.6191984e-06
4.696776e-06
4.679248e-06
4.8051344e-06
4.669664e-06
4.8083632e-06
4.6696512e-06
4.7536224e-06
4.830128e-06
4.9268352e-06
4.5352528e-06
4.7839376e-06
4.858376e-06
4.8068512e-06
4.592176e-06
4.5879008e-06
4.6261216e-06
4.65428e-06
4.5868032e-06
4.7143168e-06
4.5703344e-06
4.5942176e-06
4.6548352e-06
4.5161744e-06
4.4188992e-06
4.6489712e-06
4.7361072e-06
4.6856288e-06
4.645768e-06
4.8142272e-06
4.9360048e-06
4.7818576e-06
4.68404e-06
4.7121984e-06
4.9439104e-06
4.616576e-06
4.6612288e-06
4.526224e-06
4.5415824e-06
4.8296368e-06
4.6447216e-06
4.6250624e-06
4.7514912e-06
4.8471136e-06
4.9778304e-06
4.8030672e-06
4.9104688e-06
5.0863424e-06
5.0475792e-06
4.960392e-06
4.727544e-06
4.7313024e-06
4.8604176e-06
4.7467504e-06
4.7063344e-06
4.7340016e-06
4.6819472e-06
4.7228416e-06
4.5453408e-06
4.5793376e-06
4.6940896e-06
4.767456e-06
4.9183872e-06
4.8907712e-06
4.7722736e-06
4.9550064e-06
4.9751696e-06
4.8625488e-06
4.7525376e-06
4.5968144e-06
5.0214496e-06
4.8211376e-06
4.5421632e-06
4.50176e-06
4.530448e-06
4.6361968e-06
4.814744e-06
4.8530672e-06
4.8445552e-06
4.8615664e-06
4.9093712e-06
4.7435472e-06
4.8987024e-06
4.667584e-06
4.730824e-06
4.5565392e-06
4.52572e-06
4.8509104e-06
5.093744e-06
5.2191264e-06
4.8503808e-06
4.8742768e-06
4.8227776e-06
4.7064368e-06
4.8313408e-06
4.9019696e-06
4.8913392e-06
5.0624208e-06
5.2611696e-06
5.1915104e-06
5.0942608e-06
5.029432e-06
4.8907712e-06
4.8732176e-06
4.7940128e-06
4.677104e-06
4.6175712e-06
4.5176864e-06
4.763736e-06
4.7260192e-06
5.0294192e-06
5.1538064e-06
5.3429712e-06
5.0177808e-06
5.079432e-06
5.0974768e-06
4.8190192e-06
4.9630016e-06
4.7787056e-06
4.7510384e-06
4.8142784e-06
4.9433424e-06
4.8046176e-06
4.8577696e-06
5.0804016e-06
4.54268e-06
4.5565392e-06
4.6250496e-06
4.668592e-06
4.9241744e-06
5.042736e-06
5.0241104e-06
4.989584e-06
5.021992e-06
5.2393664e-06
5.0374272e-06
5.2515472e-06
5.3073088e-06
5.3237776e-06
5.0745504e-06
5.0427104e-06
4.8710736e-06
4.9279072e-06
4.911464e-06
4.6808624e-06
4.8036096e-06
4.8646928e-06
5.05812e-06
5.0730256e-06
5.1203008e-06
5.0299872e-06
5.0815248e-06
5.100112e-06
5.0847024e-06
5.1362528e-06
4.9996848e-06
4.7918944e-06
4.8407968e-06
4.6394e-06
4.6569536e-06
4.7291456e-06
4.8810976e-06
4.8688912e-06
5.1032128e-06
5.2652656e-06
5.2626304e-06
5.4560832e-06
5.42104e-06
5.142608e-06
4.9890288e-06
5.142104e-06
5.0284496e-06
4.875904e-06
4.915752e-06
4.8371152e-06
4.8817424e-06
4.7568512e-06
4.7196256e-06
4.9449312e-06
4.8901776e-06
4.787128e-06
4.58524e-06
4.6362352e-06
4.655352e-06
4.6484672e-06
4.8423856e-06
4.990088e-06
5.0267968e-06
4.8259552e-06
5.0358384e-06
4.6915312e-06
4.7924752e-06
4.7234224e-06
4.7733072e-06
4.7647568e-06
4.7679216e-06
4.8434064e-06
4.9167856e-06
4.8222224e-06
4.616072e-06
4.5831216e-06
4.5608016e-06
4.7106608e-06
4.6208256e-06
4.7409248e-06
4.4571584e-06
4.3923424e-06
4.7993472e-06
4.6829936e-06
4.7202064e-06
4.645832e-06
4.4114848e-06
4.457184e-06
4.7467632e-06
4.6946448e-06
4.7833952e-06
4.6170928e-06
4.4879648e-06
4.8211376e-06
4.8599392e-06
4.8232816e-06
4.879624e-06
4.8950336e-06
4.8440384e-06
4.793056e-06
4.7314304e-06
4.63152e-06
4.622504e-06
4.595896e-06
4.7733712e-06
4.9289792e-06
5.090464e-06
5.0814224e-06
5.1622288e-06
5.3184688e-06
5.3036016e-06
4.9954352e-06
5.0804528e-06
4.9099008e-06
4.9614256e-06
5.0671872e-06
5.2568688e-06
5.373248e-06
5.1830368e-06
5.0767712e-06
5.1027472e-06
5.1090896e-06
5.1627968e-06
5.0942224e-06
4.9837072e-06
5.182456e-06
5.0060272e-06
4.889648e-06
5.0172128e-06
4.9034944e-06
4.9874272e-06
5.2191008e-06
4.9135824e-06
4.8333312e-06
4.9481216e-06
5.071424e-06
4.8360432e-06
4.7929792e-06
4.9236832e-06
4.857808e-06
4.8084272e-06
4.8004448e-06
4.856232e-06
4.957176e-06
5.2403744e-06
4.9029904e-06
4.7355904e-06
4.632528e-06
4.5639664e-06
4.5304736e-06
4.6489968e-06
4.810016e-06
4.8201424e-06
5.1399856e-06
5.103328e-06
5.038512e-06
4.907744e-06
4.826472e-06
4.7764848e-06
4.7621216e-06
4.8986768e-06
5.2387856e-06
5.3036016e-06
5.252064e-06
5.0789024e-06
4.444384e-06
4.4661488e-06
4.5103104e-06
4.6399424e-06
4.7489328e-06
4.6559072e-06
4.5155936e-06
4.6106736e-06
4.516136e-06
4.6680496e-06
4.7764848e-06
5.0198352e-06
4.7212272e-06
4.855664e-06
4.8014912e-06
4.761656e-06
4.4720768e-06
4.5570688e-06
4.323264e-06
4.4922016e-06
4.8615024e-06
4.6877344e-06
4.3088624e-06
4.3126208e-06
4.2116512e-06
4.3476896e-06
4.387512e-06
4.6739648e-06
4.5352784e-06
4.8286032e-06
4.785552e-06
4.6867264e-06
4.81424e-06
4.6840784e-06
4.9518672e-06
4.783976e-06
5.1718512e-06
5.108624e-06
4.9715392e-06
4.8976432e-06
4.651064e-06
4.4805248e-06
4.6447216e-06
4.5341552e-06
4.6590464e-06
4.8232304e-06
4.687256e-06
4.640976e-06
4.7009872e-06
4.7275824e-06
4.5357952e-06
4.6176864e-06
4.5454304e-06
5.0135312e-06
4.9508208e-06
4.756864e-06
4.6936112e-06
4.5772576e-06
4.802008e-06
4.7642528e-06
4.81796e-06
4.7711888e-06
4.956104e-06
5.1872992e-06
4.887568e-06
4.9778944e-06
5.0038832e-06
4.8392208e-06
4.6777488e-06
4.6224784e-06
4.7547712e-06
4.7456656e-06
4.9645392e-06
4.806736e-06
4.8652224e-06
4.783912e-06
4.6292992e-06
4.65428e-06
4.626664e-06
4.7781248e-06
4.5347104e-06
4.323768e-06
4.3211584e-06
4.5076752e-06
4.872184e-06
5.0671872e-06
4.8599648e-06
4.7297776e-06
4.7950848e-06
4.7435216e-06
4.7307472e-06
4.7132192e-06
4.5984288e-06
4.4554416e-06
4.5128432e-06
4.5309648e-06
4.7026016e-06
4.8763568e-06
4.791352e-06
4.8184896e-06
4.675592e-06
4.7127536e-06
4.8216672e-06
5.0246144e-06
5.04904e-06
4.9252208e-06
4.9145904e-06
4.9443632e-06
4.9018672e-06
4.7398272e-06
4.5549248e-06
4.676032e-06
4.6637744e-06
4.6834592e-06
4.7945168e-06
4.8519312e-06
4.9130656e-06
4.7627152e-06
4.8094864e-06
4.6129072e-06
4.6722864e-06
4.7286416e-06