/*--------------------------------*- C++ -*----------------------------------*\
| =========                 |                                                 |
| \\      /  F ield         | OpenFOAM: The Open Source CFD Toolbox           |
|  \\    /   O peration     | Version:  2.4.0-MNF                             |
|   \\  /    A nd           | Web:      www.OpenFOAM.org                      |
|    \\/     M anipulation  |                                                 |
\*---------------------------------------------------------------------------*/
FoamFile
{
    version     2.0;
    format      ascii;
    class       volScalarField;
    location    "0.0009";
    object      rotationalT_mixture;
}
// * * * * * * * * * * * * * * * * * * * * * * * * * * * * * * * * * * * * * //

dimensions      [0 0 0 1 0 0 0];

internalField   nonuniform List<scalar> 
5120
(
325.9228905
322.3550647
302.4674465
306.960441
314.139827
306.106382
312.6122531
315.5975674
305.8626239
299.4680347
308.9257401
312.9624403
308.3959065
316.7457115
295.4475195
307.6673207
309.4736816
317.2150623
328.8520639
326.3585217
303.0518182
298.3293229
305.000955
300.4224667
286.405039
294.9625603
293.3827557
304.5778723
307.5105256
318.7579102
313.3774767
307.1746476
314.0009136
307.3300058
320.823362
305.4982337
318.5943507
317.6071936
295.2940164
295.5775258
306.8498389
312.6129751
305.0905684
299.4229105
290.6232919
288.6965723
284.9795268
296.2375875
298.1158348
301.2118013
301.6276983
296.662626
295.3011714
304.1576676
302.9142619
305.8507217
299.3542511
288.6330371
301.8365876
301.4269929
312.6782735
298.6909055
305.6885021
295.8668517
314.7982507
303.5595314
308.0200491
298.6940632
307.6873999
304.1395707
290.4004636
297.0548314
295.5837289
292.5247882
291.7531062
286.4527854
296.6794388
297.5255146
293.8151272
303.4270113
317.4784664
304.5356994
301.0768827
290.9303979
301.3540013
310.4177622
313.0185189
305.9136016
306.0586004
305.9419752
301.5246887
312.0530387
309.5825381
309.9972709
321.2692449
322.2673636
309.6367196
310.9177129
316.4782167
311.9847128
287.4437946
288.8894855
292.7900793
287.2084715
291.2867073
293.6836961
295.2617129
312.403295
302.0729071
292.7130043
292.3559416
310.7401359
323.3321485
307.3503108
309.8937442
297.3999289
300.9283566
297.9693367
286.9003725
269.3413476
302.4047986
306.9759318
307.4490842
302.1384308
306.9208553
314.4666061
306.3977492
291.8020211
290.9600432
295.8385709
292.5417379
283.7309337
287.6610683
300.1190383
294.9005681
302.6444805
309.1847272
308.4955941
311.5307202
302.0212052
318.3929423
311.5519695
321.9009793
312.6652475
321.8794713
305.4354429
300.5152154
292.1126854
292.0725288
281.8758797
288.0806109
301.2146801
305.4026782
312.4777148
310.8130634
306.2111146
292.2427162
285.2085813
296.1317477
305.0489038
287.7404674
300.3345656
298.0980984
303.7821339
307.4453466
300.597845
297.1114296
290.3244925
289.8921968
308.7715326
324.4338626
320.0640663
313.5270958
302.3614293
306.6877344
314.2221877
309.436694
312.2290663
308.5009977
288.1954233
314.5400641
306.835534
304.1003496
304.7119183
289.7312688
300.5062652
302.8288802
295.0167486
296.3534485
296.0135653
287.8289545
276.6081835
290.8231638
294.5771691
292.505785
300.8521087
313.8511504
325.2343811
317.9581523
319.5485505
290.0836423
282.2188608
287.2094118
280.5662454
280.288635
268.2330876
273.8097154
285.5411702
278.1929597
268.9912532
287.3910074
301.64972
278.7113979
276.1719508
277.1683694
275.514535
281.1240592
279.4579467
281.4678186
288.165296
311.6295204
289.8314353
298.7259082
291.1680314
291.9598462
297.2475413
286.071561
285.0324697
296.7154275
302.6667001
297.0845105
300.3786835
299.6257195
301.8368629
301.764566
300.780771
307.2552155
321.4764218
315.3843315
316.0608654
290.413113
297.2407713
284.4884051
291.1941942
302.4096751
308.1488636
304.9786636
303.7449723
298.5190383
294.0933145
298.420207
292.2840215
290.1584768
291.1374987
294.5374664
304.8891562
302.7619279
302.7485041
303.7543659
308.3074846
307.4040617
291.586094
310.9821895
314.763138
310.3001183
307.643264
307.8676551
301.3838545
304.0146431
310.8672062
326.6884256
309.76003
306.8627571
311.1327133
302.6637794
295.5924316
306.9665651
306.1517127
300.7170816
303.409187
293.5554993
289.0671437
292.5563149
308.2062605
311.0583685
319.7341195
301.3603403
301.2096064
305.1327507
299.3633302
321.5641755
324.06758
324.3860894
312.0453598
305.3629682
308.7492336
303.1658637
290.624899
282.4126541
286.0519331
320.6504599
318.4493148
310.5908783
305.0469003
309.0417146
313.6086169
310.1071101
308.0506939
317.3389766
325.1062797
327.680886
321.5757977
332.446284
330.5123233
326.3905155
318.1414787
308.6975318
301.3781755
323.6288195
318.909534
312.9341609
308.449877
312.5354151
305.6855718
313.1615935
310.9098357
308.8781751
309.6208881
311.341535
315.8668587
314.070729
309.8065874
304.0047183
310.0277744
311.9762064
311.0781039
317.5441114
314.8991868
317.2046354
319.6433483
308.152024
306.0858886
323.0561246
329.6294837
334.2907805
334.5227004
322.7754527
323.1582251
313.35202
300.1586764
297.5736391
311.6161845
303.3536301
305.3826491
308.3535595
309.7975978
299.649924
303.433488
285.1236492
299.410396
289.3427645
292.1485692
289.8594912
301.7924721
296.1300087
311.9439583
309.9400455
301.4321565
291.4765389
291.3797501
296.9860399
296.9356948
308.8170437
303.2223521
305.8825366
316.2628365
317.8748236
332.6107271
322.5984194
294.5217236
287.7909024
294.4969615
296.5940103
293.9593913
275.439445
285.3677611
276.4604792
304.4627422
306.5688468
313.9426715
325.5015663
321.9938176
301.7456509
302.4514782
285.1557237
275.1538122
285.8687793
294.1232549
303.7998704
296.8943369
288.4120193
284.3369571
291.3981627
280.6614149
287.1527435
279.7058615
277.4514264
263.685466
263.1271211
278.648979
286.0102719
294.0081099
293.9168449
311.8870643
316.7666632
322.8307191
306.239823
301.3938324
287.9310236
276.935981
305.6960045
285.6388221
295.7636988
297.1383147
296.6275094
302.4047035
300.3658171
306.5747337
312.4258512
312.8932003
317.7605415
317.0986512
317.8693952
302.4376335
312.4801511
311.3509292
314.5692363
305.9395597
324.7716919
319.491887
324.3962784
322.0555656
299.8557849
310.6722878
298.3946579
300.5965212
311.6153186
306.8003871
304.371271
298.187391
295.8789896
292.5303362
283.8270867
281.5799775
288.3607575
296.2797117
310.0527876
327.46083
334.234035
336.0032837
294.1235288
290.2346687
288.6262222
296.4733587
298.7679347
308.5671422
301.1896721
314.7276567
305.862202
302.4296351
295.5826606
291.8155579
285.4923524
283.1601634
286.9658392
302.1062822
312.3522013
301.9982355
295.7996688
309.1464415
310.6034647
317.6648375
309.7271598
306.3984299
307.858218
295.5196148
297.2926262
309.6464665
314.6516758
310.0229092
305.4557298
285.4400657
287.4499253
296.2689873
297.1638935
283.6114466
286.9931379
297.3705478
311.5141092
310.0799726
321.0023558
320.8792485
323.4555451
324.7162624
328.1724619
317.6360892
313.7133843
299.017515
286.3378803
280.1477128
283.2738032
290.7769455
300.1152635
299.9269392
295.3700197
304.0715915
306.6655512
312.323399
329.700718
318.1092601
296.3935538
313.0724843
290.2672477
288.2387997
270.4612468
279.2780311
272.0922762
285.8741287
300.0925297
307.0807074
299.4436305
296.9896239
296.2601396
283.4945198
280.4839067
281.1388716
278.4041704
277.1280428
272.6710849
294.8150769
297.0556661
302.6277288
326.5757661
317.9139755
314.8811754
312.5645275
310.8221881
309.6055728
306.8264237
299.9820175
294.8688893
297.0229797
297.7339456
300.7405008
286.5331676
285.751381
287.6476988
279.6720529
276.0390497
285.1456773
293.5106858
281.8617285
283.6117646
286.5623496
296.622433
285.7293998
301.2758423
311.8237718
316.6547284
326.1314424
331.1060814
318.9101042
307.1237487
304.8736881
294.0226941
300.6203496
285.218052
288.1064393
282.1735793
302.3075185
301.5625819
312.4010481
320.3019659
309.4906973
288.9070086
292.2620858
275.7635427
292.8488826
306.527806
313.3802262
298.2473954
311.625959
309.2924945
300.9168471
295.7938771
293.1387007
285.2777341
278.5204717
294.6527694
285.5633218
266.6037859
292.2452484
290.6916661
282.8121969
295.7246183
310.752981
328.1654382
323.035125
302.1040197
298.3310375
281.4032898
272.2785602
271.210987
292.8876585
291.3794438
288.6785971
309.028381
303.7211241
301.9853602
288.8262056
303.2036012
300.6720566
295.329695
304.438106
302.4454903
295.7336576
291.198476
309.9963435
292.386753
292.098373
296.1718007
306.1113502
302.892046
298.9689292
307.6606557
308.3638004
305.9492451
304.818567
303.3916502
311.6742423
303.5623856
307.6531236
300.8678469
291.7925235
290.8202322
276.7729639
296.8653913
306.2462506
288.2807285
285.4086876
288.4216138
297.209946
301.0040507
306.2085327
314.9879651
322.0985882
324.8436672
325.4061153
315.3848291
302.6286469
312.8791311
305.4207523
309.8489924
305.9869697
296.4624071
298.6289827
288.9148334
297.5972762
329.2259252
323.0457725
320.5097942
305.9311758
319.1962369
320.4819565
305.7405982
314.1443786
311.9724263
311.8605495
302.6549048
309.8127887
300.7981327
293.6370311
292.0491301
284.9236571
298.9980513
299.148269
301.4603751
305.2447999
295.4565222
302.297116
301.00195
309.9863076
316.4679432
308.6910549
306.9193988
306.7293048
302.5382734
304.3014629
301.165587
308.7883283
288.5077342
274.7806887
293.2785192
298.712343
314.7956405
299.825791
286.7203429
274.6124967
280.9763783
295.5390374
301.8878325
302.7411995
294.9045524
282.3317315
287.9961487
282.8412449
276.4683705
262.7647362
270.0005104
282.0297821
296.0229756
316.9699882
310.6260916
323.2518753
317.7458263
321.2327333
298.2112782
298.3822192
309.8811667
299.4100377
291.7354261
303.5089908
304.2426878
300.2387494
305.0743929
307.068049
304.8324426
291.6230502
300.0062882
296.173645
317.2135503
326.8603454
314.3325088
301.1730817
302.0383329
305.070663
304.8199689
309.6522664
317.3064038
324.4830191
318.6178427
314.0972076
316.1327536
321.2186123
323.6583749
314.3756435
323.4245601
325.6873173
318.8364524
328.5875243
283.6988385
310.4607445
316.0605751
310.2997884
310.0544998
307.6141026
308.3720886
319.2460815
308.4599201
297.9337905
308.4782636
316.819487
311.540509
302.5639214
309.2710784
308.4111447
312.6834446
299.9709375
283.5186127
271.9499235
296.4926685
300.5117646
318.4578556
299.0936881
307.2466397
299.0763613
295.6480837
296.6657824
295.4537666
294.0250029
287.6549573
290.8169412
295.7401428
296.2298543
296.0782297
283.5855849
291.1759102
286.7782982
305.2742926
301.9793725
296.8739101
291.3771231
297.048848
306.803638
306.7139643
302.5466242
289.7851686
302.7285439
307.2273449
308.2931687
308.2283011
308.1035148
304.1665441
304.972268
300.9132077
297.797461
303.0895296
287.8129117
277.8512492
288.7512971
286.0126256
272.1363808
280.6001603
266.4550243
272.7241045
280.847207
282.8256673
289.726242
279.2366373
277.4755236
280.6768043
279.7510158
292.3643407
295.3678237
299.7875314
298.1050964
306.1546799
302.7544096
302.9385394
300.9509391
270.3083775
279.9331928
276.5445494
289.7938661
288.960403
295.4376521
287.6869131
301.7482843
306.8227884
318.3486216
315.3589628
307.5341023
283.2253868
292.2120922
298.1161906
286.8321605
273.8980751
275.3217183
282.0149833
267.9814666
281.3998315
279.8075395
287.53015
291.0923071
293.2279288
294.9770446
292.5255278
283.0603301
286.5354282
293.9131715
283.2649497
287.3740166
288.5063686
298.0512575
300.4428735
292.6561159
293.3540051
293.6545328
294.9455339
286.290222
298.7790415
295.1494317
283.9701717
291.9837888
301.9673934
302.9408588
299.6423143
297.3779288
287.78631
295.9756848
289.225588
297.7961432
302.7838752
301.098646
308.9694525
309.6506396
309.778078
310.4894759
304.1039138
297.0975585
321.8718117
318.9851498
312.0046195
308.706581
307.9501578
306.1858652
311.932807
289.2920807
283.8078666
275.1077612
274.3127676
285.8567736
291.2432759
306.9863437
301.9652481
306.7423757
302.3583891
318.0223128
324.1066323
332.5724637
266.757151
272.2470595
267.2763814
280.5827147
275.6487904
287.0901705
289.8524926
282.4175406
291.3832807
281.9814339
297.3706179
307.1395994
313.1076479
295.2946996
290.8895217
282.5085447
282.6692887
278.335015
266.8891477
268.7101958
308.2468008
309.7439527
309.2702046
294.7314412
303.0588123
306.6615718
304.228117
304.6423104
306.7049186
304.254013
320.0176346
307.1448037
301.8004186
318.0294818
296.8487524
305.3907809
295.9982614
301.4640669
299.131548
300.0451414
267.7695394
282.6817697
271.2925526
282.4155146
294.0572464
302.9310061
293.482109
276.1353904
266.861892
280.8890861
285.912145
289.64093
292.3840167
303.930252
305.0696957
304.6471614
295.5930278
287.3477986
281.1977772
275.7701333
286.3601196
281.6730949
282.7343308
298.8830683
299.3519461
301.3474378
303.5943883
298.985084
297.3589091
301.6724369
302.9245794
305.9121027
307.721486
299.0648213
296.8280098
294.9713057
282.3981965
277.6845949
283.8691571
290.4413232
304.6348051
317.7063101
301.3709162
301.7615327
299.9219177
299.4007328
298.5502415
300.9131188
313.973565
312.8241258
310.5569579
292.6363187
287.3448012
299.0388169
308.1187642
296.9329931
299.9335499
305.7885875
301.7249109
294.2340749
306.5305605
305.4763655
303.341648
289.9622695
286.761309
297.7189784
313.4662459
304.9595055
315.2224216
317.8160193
315.6493042
300.1344534
293.0945771
295.5793128
279.2409208
283.160544
292.4492741
305.7234073
314.6339269
298.7763307
295.2636206
287.2296493
287.2654214
280.8696136
295.9168168
304.1673001
303.109922
312.0937028
311.9855833
310.6724613
295.6494769
285.5607003
304.8086736
302.2255287
299.3257087
283.1347784
296.868042
296.5872264
297.8854385
307.4373848
277.07279
272.8451114
281.3921778
285.1957126
284.152377
300.0971841
309.1315164
299.6164335
294.6658503
306.3384831
316.3912196
309.3641588
313.7088801
316.3911964
310.3950831
308.1221743
305.1720176
310.6519354
286.2162668
287.0037315
313.0710095
318.1895069
305.5415058
307.2683364
302.0642647
289.1374499
291.3048236
292.3716185
302.8203518
304.1973203
306.8948582
300.6121433
301.8195114
299.0124508
300.4919044
298.8291955
320.3004538
301.6209459
319.0687623
313.0861345
300.0049292
279.9990744
283.1868386
286.7388237
278.0296022
299.4317268
309.6589738
303.1107027
300.9076466
303.8039686
295.7718862
303.350411
315.3233599
303.2690204
301.7828586
302.6731317
298.9598608
296.9743304
297.5747458
293.6271515
287.5073414
295.372391
292.4998488
291.8466865
307.2201642
309.1561556
306.4738057
290.1246143
302.0554005
310.1273866
302.6160639
308.9129002
300.6889156
296.244423
286.7938154
285.535524
288.7659437
288.5948277
273.7438585
270.3800307
296.935834
292.592165
298.6526534
311.7937462
317.4628718
321.4297895
300.7753032
288.5388202
285.0321188
282.3185828
294.1776551
294.2750567
293.3565436
282.0981772
298.7365877
294.5682899
302.2543847
301.605925
292.6461587
298.8688697
286.2945415
307.0379295
298.7788378
292.7150749
288.4876103
290.2293082
289.0423807
293.3383581
291.3403654
292.6564288
303.1783834
301.9433251
290.3234494
282.7278821
287.064435
288.9634057
294.6912881
300.0162488
294.5811812
291.3810118
280.9503866
286.3260948
280.7208783
269.9905636
284.7228843
281.5004992
295.7073623
307.6031367
310.4275006
299.2220004
292.546126
307.5594992
310.552921
314.8694401
299.549701
299.1771471
281.7198931
278.6530053
278.7856035
288.6860056
286.5322287
285.3771381
288.2241264
267.3951349
270.5847935
263.8392263
277.1107809
278.2932036
285.3120825
271.1423669
278.9304761
283.5417551
270.699264
282.4640998
290.6824182
291.2401888
294.2262097
292.6491928
290.5531787
296.7270046
296.5246335
300.0365259
292.4555697
299.9395106
296.9617435
289.1250795
294.6805618
288.9365321
287.4940277
300.0451279
312.3342319
311.7516114
311.9621645
294.3724281
298.1812243
291.4325442
297.1492483
303.9066821
295.6861775
289.3178175
288.0713556
310.326363
292.5066341
285.373823
297.6257114
291.7795833
287.1534518
288.3697819
304.9410261
302.8412042
305.6419812
285.4843179
284.0024098
288.1720763
290.0974885
296.4067858
286.6169517
295.6091046
293.3675375
298.4714432
297.556516
302.5403113
311.4244476
310.7146977
315.8613032
323.0192323
331.5362694
325.1507839
315.9787667
303.7679623
287.7995459
288.1539216
294.9577181
296.230729
287.6941431
292.4017408
299.3236723
302.7185182
306.7967898
320.9456637
267.4197482
280.9983922
280.8628816
284.0476721
281.9376208
283.6404724
284.5490371
300.7806178
311.3621154
301.0700432
290.9713926
295.6508685
287.865483
286.2763773
288.5612014
283.4459362
286.450622
282.8311774
283.8986738
280.0377247
285.3120589
285.4944755
295.2769265
291.7460005
294.7620391
289.8147805
300.011693
296.076592
274.1578215
268.8082827
284.6312468
286.4242676
275.7585832
270.8673352
273.0791172
278.6600805
287.0508968
306.4632132
289.7357858
287.3930133
305.1726936
301.8222913
282.6753768
286.9002226
279.6479977
286.58076
294.1099738
299.6504303
313.4348758
298.3045384
286.6193568
287.7741205
289.1375752
288.1624967
281.7661574
292.42271
279.1920857
288.760423
303.3169775
308.5703211
295.4520869
294.6950928
319.8318004
320.1635942
308.8994126
314.7906615
316.0579821
319.4554253
309.6404168
320.8540739
327.9659911
344.824301
328.6845766
316.6174454
311.3493801
308.3373831
303.4067693
308.8270464
297.6459519
308.3321733
321.3165742
323.5120913
318.3365836
315.417873
321.2317323
317.7947512
311.1697784
301.621882
297.4136457
306.1099353
314.0593712
295.6288149
301.6312141
306.7996763
302.1093345
312.7832167
320.0165898
319.2862828
319.6171256
311.7294543
286.6498105
279.5783014
275.3455053
287.5130283
274.195131
276.0841112
290.805525
293.6577902
299.4411295
289.073923
276.6440433
286.9474649
278.5979338
277.8760829
285.9262959
288.101109
273.2785408
279.8935571
286.89212
294.8150373
294.4916583
313.7730573
306.6894652
292.7108369
300.2895411
278.8616533
297.6772771
312.008682
305.9017169
319.6246474
318.7581289
311.6752919
320.6192333
314.9697388
297.5339301
301.4842259
301.887866
302.0711809
308.7382944
296.8479389
316.2220456
317.5841732
317.5090893
313.5224543
322.011133
326.2476553
313.6555109
319.2722944
317.4030151
315.8279962
305.0497576
314.2276805
317.8917221
318.8507883
316.7429459
301.9096871
286.1289939
283.9509442
287.712804
303.3802682
294.761305
282.1900698
283.2885685
285.588851
284.820873
288.8514856
285.174853
289.5575351
284.999247
290.2682254
284.4652745
284.7238937
305.9515635
298.3784569
296.4059226
299.7230877
292.962067
286.2789076
293.8755521
297.9629307
286.3069843
287.6014953
284.2631559
284.1497752
278.9269833
292.2052611
305.2713832
306.3384693
302.8169345
289.815422
294.0258952
298.1182023
304.4064382
319.3529294
333.1085422
320.2179718
317.0860513
303.2416272
292.210331
278.7111579
294.0629805
285.3306691
297.5629156
302.7930356
298.5721537
307.6142532
302.0505458
307.7656184
315.1661212
303.2039311
299.095133
297.1942916
289.2753606
269.2852186
275.4621487
285.8859343
273.6716658
278.5337483
291.7645142
279.8327565
289.8484586
298.6942306
296.3073917
311.4069786
303.0777176
301.7412899
303.5701329
310.5072948
301.7891643
303.4949376
312.4261165
316.8542463
321.0027116
319.2546202
322.2158675
308.0763522
316.813561
323.8494219
304.0365408
297.4247785
300.0911891
281.802145
288.2681315
294.8311749
290.3740975
292.4737337
289.0579944
307.6203995
301.5277578
313.3037727
295.0808038
286.5785638
277.4904992
280.7763675
280.9478298
293.9402868
291.5377929
293.4863896
298.3210052
296.6923686
285.5467551
279.1004293
295.9855046
298.0058364
297.1090114
313.9207797
300.8812938
302.7923561
304.4908795
289.5242421
291.7643466
290.6897953
293.1411983
286.880401
294.3467193
293.9809263
293.382951
298.8160849
289.1543848
280.8516253
313.5015733
319.0372248
316.7395736
308.4254995
311.4035941
304.9147303
309.9336137
296.2111494
284.7842999
296.2503542
289.3109378
301.8543363
313.7181384
318.3964427
314.6637022
309.9774886
301.6710247
311.4121976
309.6601261
328.1475131
294.5111984
295.1418728
308.9816974
298.0758657
291.6554444
288.0555483
300.0663557
289.008842
295.3781572
302.8603165
310.275156
307.5311977
301.6839005
304.0054514
297.3189692
296.3793703
301.9451276
296.1241589
285.6988806
294.9176294
287.9634574
291.3218801
292.3271014
289.7504518
289.0042404
274.1848888
271.852396
285.0358352
285.0455541
289.7253766
301.9040592
313.2958054
312.3267638
314.0476208
318.3420912
319.8900984
315.8819719
311.0449036
317.1608154
298.2302074
298.749316
297.7850916
296.4817792
296.4879615
294.44361
286.6121197
282.2446072
283.4356688
285.5325227
287.8213499
287.0488233
288.9375569
297.3949904
294.4312696
291.0240294
289.3937038
288.5124979
281.3664292
277.8863663
289.2740459
295.6730931
302.1609945
307.3909215
304.3872692
303.0358047
292.4418257
283.5824991
272.9573329
272.8905262
282.9297107
282.0657508
285.2005881
289.3828648
302.5738059
301.1597008
297.2911229
300.4188418
297.0531727
287.2513441
291.1321562
308.7064644
303.1675847
295.7512377
305.3839657
308.3747588
288.2022419
291.6510531
294.8104597
302.6435127
299.5425208
287.1879065
291.3769702
295.0267385
306.5891224
319.9220379
315.5168346
304.1616259
302.0087246
299.1120958
303.2976459
306.3550101
309.6533895
303.8144774
305.6038629
303.9022732
303.7973913
297.2565054
300.3005774
295.2172284
310.0030457
291.4970913
301.8095865
286.2295972
285.6271018
295.3883488
299.2063363
297.8957086
302.0891842
297.2767002
306.5178553
302.8147858
308.2404613
309.0627899
306.9988675
300.3431899
311.0433933
319.3304954
299.1621555
300.8825104
297.0842166
298.9127347
290.5651563
288.613525
282.4690212
284.7061633
285.5961399
284.6729503
292.5812257
297.240299
297.3676029
296.9202587
296.0557035
306.2147429
311.4525262
316.498324
310.9718666
304.6761508
297.7700692
299.0031196
289.6818156
288.9299545
290.0518444
279.3010326
301.6253438
306.039377
314.7180362
305.1870805
312.3089135
287.8710975
295.5274854
312.4095291
305.0376694
307.7625925
314.3417147
312.86567
305.0831963
316.5603201
305.2040326
300.7878032
306.3334375
319.5235869
329.3511564
321.259007
305.9400689
308.9070119
305.0427971
313.1807841
325.2307929
331.622498
324.7885314
304.3552378
297.4765194
293.7920678
293.4913126
301.5039609
311.3933015
311.6012297
300.2270237
289.097895
305.2083684
307.1898352
313.3564152
305.1371476
301.567425
292.392863
290.1919667
309.9941574
303.6699485
310.6515287
301.8312356
302.1563515
296.2572428
309.1592376
313.6874176
307.3680975
303.4288368
296.1486947
310.5631213
322.8989681
320.003272
301.3336641
284.5416485
273.9442365
290.2745707
278.4933843
276.8859767
292.4908329
299.4095537
307.7907038
301.6432287
308.7257936
314.1105145
311.5367116
314.5750808
312.9131333
303.2049349
301.0446513
282.0795636
278.2027609
269.3459803
279.8336741
290.0493483
275.5094596
274.4774127
272.0976321
294.0416999
292.6221868
289.3514187
289.6913191
305.6222796
294.5214991
291.0942235
275.2220677
287.1033192
288.8122889
294.1264972
293.9076415
286.265896
282.9162688
283.6756308
292.7930422
306.4913234
295.0641343
311.2491763
301.2356041
304.4589013
307.3630832
290.594743
297.4994124
298.8774629
296.4865321
299.0472432
295.689976
304.2610684
292.7867015
298.3805006
299.0303518
301.9292675
302.8206576
300.7907598
292.0558645
291.0451659
284.6171547
299.9291229
308.1494676
310.2580858
302.8310937
299.305932
305.2186809
303.426174
307.2540391
329.4647127
318.5464591
319.2326972
313.2013535
309.4498423
308.6470673
313.1386222
308.1487655
302.4555301
312.7175582
316.1546897
316.3032721
316.8001788
298.4697815
307.0408343
314.2637892
302.7205763
306.3048981
309.2065743
287.9979002
291.5586334
289.1345902
290.1991263
308.7963
327.4120367
328.4036971
309.8775287
301.7061503
307.8173025
309.4047709
303.8188092
305.7624383
293.3363462
298.8848481
299.9928465
291.4360721
291.502108
305.544567
302.3966709
296.0064539
292.2288121
289.5147412
290.2586987
288.2786636
290.5789037
287.9756498
298.9401209
310.9410271
303.9815833
296.9933208
294.4025094
299.0561182
296.3513554
277.4720318
272.5508709
260.5298886
267.2899981
268.1231692
276.5108978
302.0568823
304.4155779
286.936334
293.2288902
287.2187744
301.0149954
314.2898935
323.9223495
295.0509965
302.7482571
292.0539214
286.9626864
295.5706437
309.833127
307.4687255
319.6520152
307.6411461
320.9667343
306.4772016
308.031765
275.8545099
281.3454825
289.5699277
288.3318518
291.2426355
296.7955249
299.8014607
300.1712064
311.8741082
312.1373897
314.980376
299.250141
301.1614016
279.3526836
289.4846315
287.9361798
284.0432749
294.7224297
280.0108177
274.6720149
266.4827
260.7069217
272.939544
278.6703265
295.1471683
302.1663514
311.0583218
310.6278134
306.0139138
303.0149726
300.1097822
307.8336822
303.0738098
302.9993155
290.0038319
284.8696401
288.940312
285.9011016
272.6727563
265.166494
276.8013149
274.6079847
270.4097924
278.8632935
295.2536662
293.6406113
282.9274177
284.3718587
291.3107486
301.7271516
296.7596691
300.4391711
285.0841334
278.1124658
277.6650664
282.582251
285.9768038
290.8398512
282.5364232
296.7344238
299.8438461
305.3854549
301.2046407
296.45298
288.7361328
287.7360867
288.0660378
310.4661326
309.8785812
305.3936255
313.6279197
328.4439893
331.2949117
326.2222792
312.1906056
308.9693376
300.7550534
291.9477393
296.1083989
287.419484
291.3225169
298.3002312
303.1898455
292.9661779
305.2501149
306.0261458
312.2795657
313.3474475
305.8707287
309.563863
301.5331463
297.2261938
289.639292
284.144371
298.8006174
282.8886178
284.159949
290.6705148
302.9075164
301.089644
308.887261
303.1922569
302.6275182
299.2990717
309.4271751
321.4848086
316.0917815
316.5072087
318.2854004
316.5203193
305.9136148
298.2927871
298.2692416
307.4878382
312.330275
319.8985666
317.4391592
294.6130246
306.249189
317.9578117
295.879093
290.0489471
293.1423978
294.9018508
304.9649354
304.2365484
309.3235091
311.0821287
313.0152749
311.6013708
305.8631103
304.5640783
301.6020661
302.4573437
301.4907855
311.8725709
314.1511848
315.6463161
305.828316
299.8526305
304.1806911
305.1628273
300.5069318
288.878544
292.9865001
277.5001084
270.3101594
268.7957117
273.5982481
274.2930355
273.688734
283.7728435
299.799266
307.948262
300.7218366
287.4789186
289.9888553
294.8533269
293.0075773
292.7052338
309.4910822
302.3468264
307.5729333
316.0867968
304.119559
307.854309
308.7630747
301.8457136
290.3010377
292.6427086
292.4798575
301.8773315
298.2058042
291.2568634
299.6903193
303.2860413
299.73496
301.921004
303.6794921
314.5146203
270.2993721
292.3358308
290.1835442
303.0688675
311.3067226
325.7814751
311.0421223
305.2986345
297.9204392
302.9545525
303.7474246
301.465401
302.4037772
292.261709
293.6127146
284.7279289
292.7268251
285.9080287
278.8380873
281.2436024
298.2838948
287.6369898
300.9033442
300.9314492
285.9472695
279.493081
283.5745024
299.3410708
303.7598289
312.4143361
311.5277258
304.1859804
316.4222902
310.9408402
308.2371613
308.8754974
297.4612445
298.532873
305.0338014
305.2396859
314.0058468
308.2043163
306.50624
307.9979855
317.5363047
308.1580943
301.7144145
296.8605419
300.4537384
304.1062243
297.7468085
300.6341849
305.3731153
300.9852522
316.9230133
308.3010037
301.3935677
305.5914851
315.9224759
311.9305141
313.3136848
322.036688
315.957723
312.3063428
322.5594023
323.4163812
320.5249281
326.7773317
319.9969162
318.6615771
321.9592061
313.5055187
299.4631504
298.2324949
282.3905501
280.8365184
278.1362867
291.7684436
299.838647
315.4094814
310.1674255
299.9689515
306.1727335
314.4377261
299.0584347
296.8992722
306.3542022
306.7952749
316.5236758
315.9519828
326.5586117
327.5140336
330.7074684
337.0160142
348.3514973
337.7009187
326.8735106
327.0481335
324.8697256
321.7838157
321.7696576
319.3981764
321.937702
324.5538688
308.2117699
295.7325959
284.4529834
289.9150905
296.2562629
301.3038318
308.4014577
310.4041386
314.3515923
316.5628342
313.2595503
313.3695957
331.3969184
321.3329564
310.9134751
308.1445152
312.017542
308.3152813
312.0935687
315.6238277
321.8111324
311.3979242
295.8914447
305.0321099
298.8579434
305.2766841
294.1909774
292.7932751
278.224757
278.2904035
278.6289709
289.0683051
290.0461581
302.4861494
300.4355252
316.1715646
307.3459408
309.2005706
305.7416071
314.1754705
314.143083
318.0251347
308.9019553
309.9009787
300.566497
286.2765344
285.1817457
282.7989847
287.6111545
293.4810924
291.1246085
281.8212569
272.717375
298.0572812
308.5775695
316.8159476
304.4300075
317.2596429
307.6633552
304.6947193
310.0483381
316.6565602
315.7857342
304.0173723
296.2542748
301.2897301
304.4612844
298.7402598
298.1062843
300.0079263
289.5744665
281.4791944
284.9671806
295.3024841
299.134105
299.3785347
278.7476673
280.599052
279.6793876
279.6485017
282.6122046
276.6677106
288.6073057
293.5289787
286.6735146
285.4530488
291.6943607
286.34368
289.8694759
304.0402697
289.5983899
309.89716
329.5205994
312.178775
304.6365481
294.2774977
291.1613643
286.6530217
283.9573665
277.4952001
278.074643
281.4278076
291.5560551
294.6571542
307.1936805
313.508261
309.4103251
317.1077419
316.1407413
310.868038
319.1371988
309.9076978
294.725157
298.0905854
289.7514099
293.5367992
292.7270979
297.3202744
300.0237798
309.1752541
297.0261354
303.3974376
307.0415713
296.2835467
291.6579196
282.0604636
288.2240858
286.9374416
292.1744358
297.1106528
300.295954
303.774426
322.1982351
326.4672271
320.701721
298.2733001
319.7572219
326.3005535
331.5619388
321.8503132
317.2366603
309.7653337
295.5010718
290.5756505
289.5651965
281.3543609
288.5545208
295.1759316
301.0005794
301.7976834
299.6578694
292.4551294
292.6408039
297.9515783
302.0156751
303.2741289
299.4163614
302.769158
294.4775045
300.2760337
299.4312415
292.1852758
288.3300439
290.0242585
288.9880493
292.1188876
287.3238368
292.1775578
283.3676725
280.6446649
280.8938541
283.5699776
296.012342
286.1545897
299.3888383
307.3897994
273.6013847
276.4683211
279.0781883
273.4704019
274.6557923
290.352831
295.1770573
297.888115
297.2842062
292.2496854
286.3643537
279.230836
278.8901073
276.4418423
281.1498922
287.0913387
271.2510806
267.1130424
268.3649606
282.4787047
296.27481
306.2572906
305.0948777
327.3048336
309.0330533
301.3350197
298.738141
283.3651886
285.4785402
285.3042494
294.0926275
284.1169591
292.6373623
287.299442
290.03259
290.6209814
282.9353626
291.2255002
292.1225215
304.20029
303.7099539
298.9652612
297.8286029
300.0420122
301.2860792
309.8933836
303.4970416
291.8730313
305.9995032
297.561729