/*--------------------------------*- C++ -*----------------------------------*\
| =========                 |                                                 |
| \\      /  F ield         | OpenFOAM: The Open Source CFD Toolbox           |
|  \\    /   O peration     | Version:  2.4.0-MNF                             |
|   \\  /    A nd           | Web:      www.OpenFOAM.org                      |
|    \\/     M anipulation  |                                                 |
\*---------------------------------------------------------------------------*/
FoamFile
{
    version     2.0;
    format      ascii;
    class       volScalarField;
    location    "0.0009";
    object      rotationalT_N2;
}
// * * * * * * * * * * * * * * * * * * * * * * * * * * * * * * * * * * * * * //

dimensions      [0 0 0 1 0 0 0];

internalField   nonuniform List<scalar> 
5120
(
333.7035022
327.0090836
303.1626146
307.1991391
315.4300479
312.2842603
319.2272082
322.0422522
311.042927
299.5057345
307.7694486
313.3187444
313.9789281
324.7303386
292.4387542
304.668811
306.2382297
313.7501478
329.3018132
324.6732888
300.8488483
292.0363021
301.7079521
293.399967
281.6401925
282.3143255
281.7593895
302.7407021
302.3793504
314.8210208
314.9135044
313.5641264
321.3455573
312.2238955
325.1800122
302.8994693
314.8380502
316.0921375
294.2676443
293.7355776
302.4943252
312.2100997
296.4173203
289.4298116
288.6972942
286.0556391
287.9706262
301.8124277
304.0108857
299.3293922
294.5545705
299.94354
301.3913506
314.5811462
314.3287109
313.8315906
305.7709598
285.9015278
294.7015901
292.7304484
316.7343104
300.6565141
310.7366858
302.797237
324.6796343
304.143577
304.1593942
302.9653905
326.0155428
317.8030205
300.9325791
300.8833089
293.3649451
295.2140329
292.0833365
286.9219091
300.4695635
309.0063005
304.1406075
308.7783661
326.4008995
307.8762271
306.9005397
295.9931604
304.5262828
320.5153382
317.8002643
313.9371468
307.6207213
308.6027791
304.6587578
322.0453995
310.4428051
307.4702343
314.236354
327.5163543
311.1556196
311.6372968
321.3980544
318.5493139
304.2683843
309.3488802
303.9436914
296.5685108
300.1042495
298.3514255
293.3719933
306.9764665
295.2092234
290.143527
293.3934504
299.5772122
317.4382811
307.6415671
305.6868756
297.6254119
303.5043901
305.8244851
289.8181542
278.8865809
295.557974
295.6455012
294.5098713
289.0861843
290.7545654
309.6023957
304.7072169
296.7304753
297.2583679
300.687571
291.1282904
285.1253834
287.8483855
302.112094
300.3550229
307.0969712
308.4024056
306.1060535
309.8399296
293.5953035
329.2388694
322.3332963
330.5242901
312.2291449
323.7709652
301.024111
292.6349387
278.8859871
276.5116562
268.8292152
285.6841544
305.6996763
310.2388038
315.9999619
320.2799491
316.0900114
307.9085595
298.1952531
309.3682986
320.1253617
299.035829
305.3702556
303.1673488
312.9807417
308.8133918
294.2041602
277.7847837
282.5391822
281.0178936
306.204804
319.5481836
316.3683876
313.1895193
302.5070023
311.6812973
324.0420349
326.4733035
328.6413839
318.4511629
297.9076151
306.894771
303.363718
296.4144013
295.4539198
287.3690307
302.1190659
308.7497111
294.11824
308.9675217
302.8692287
301.7679892
282.4730178
293.1226144
294.2402443
290.3814127
296.832799
306.9464967
317.9439343
312.6767669
316.2020399
275.4647153
271.5807099
282.6832548
277.0849743
275.2164097
263.0494565
265.7228902
270.8651027
272.2689235
260.947048
275.7883979
291.2696485
278.5883053
280.5574431
285.1586368
277.0422744
272.1261018
270.6328534
274.2097986
280.3781317
321.1710796
298.1341761
310.8286635
296.4649016
302.9882275
299.1807397
285.1253249
284.7547733
290.0157213
292.9740621
292.0981171
291.7117736
286.5312106
289.2599126
289.873957
280.6195206
289.4633265
304.9996127
304.2646559
321.2078651
279.2216282
294.1025991
281.5005901
288.6831953
298.8189258
309.3887162
310.5096018
309.5989087
307.1032648
297.3437387
297.8121376
290.5834659
288.5979318
292.157081
296.9471425
301.7969575
298.272012
296.6036715
300.5887861
299.1951985
310.5639883
289.3762802
305.8816697
309.4618232
307.7541861
302.7618061
301.6739109
300.8923815
310.4020061
318.4387121
330.9032258
314.8712681
315.6348142
323.6064769
307.6603687
297.091124
310.6846859
309.7900289
299.8842786
302.706052
292.842268
290.3645499
297.5348592
310.3506839
310.3205075
319.5509251
311.5127049
314.1304631
313.7805198
302.5554773
328.9192828
330.9972947
330.0185066
319.9202562
312.1100536
306.970568
305.3424417
290.8034469
281.3489441
284.949124
319.1343723
307.5520083
297.6206474
293.7130941
304.1738349
310.054713
310.6700219
309.4571668
324.0371007
327.9372012
331.3220691
322.5827167
333.285275
323.7511748
330.0238489
326.4921527
313.3061761
308.7306338
321.9653395
317.1727207
314.189462
310.7211237
318.9077192
309.2281212
321.4804324
318.8772424
309.9139514
308.1560848
311.3116123
317.1344656
314.4566654
314.4451259
301.8710635
302.4017013
303.0758057
313.0482726
324.8775686
323.8058691
322.6802889
329.9248127
310.1253986
311.6411772
328.9675307
334.3214065
330.030392
323.1720707
311.9612879
320.221637
306.1131354
292.687523
293.4926645
304.6085212
296.1388037
296.7870061
310.5148932
308.2836789
302.6632962
307.0791907
289.7384146
309.1311681
300.81143
302.8937459
305.0563411
316.6193599
304.2450621
320.5341423
309.4902368
287.6480615
279.7999615
284.3904771
294.6942239
289.4062961
303.0063698
303.2576841
302.6030009
311.0208055
319.7319333
340.9154825
336.437326
305.1699104
292.5265814
293.0417239
287.109958
274.1206951
257.2395187
268.5177434
269.1916204
296.4300482
296.0519264
301.9967292
316.8694967
317.0354073
299.3263564
304.7349224
290.1444378
281.7903367
294.6959295
296.4863455
311.0364567
296.5360835
288.9125653
288.387766
294.8517198
287.2621309
298.1268791
288.7572523
288.0308451
280.7286348
273.0804809
285.9281744
297.4811581
309.9985203
306.188502
323.6017318
324.9651089
330.2759512
306.0881256
300.0031106
284.8770752
276.4489746
312.5816931
291.2613777
305.7424285
312.3799979
309.6634021
314.6311195
310.1733246
312.3936481
308.1807962
311.7999373
314.2779699
322.0645865
324.3254014
317.4204943
323.3190067
317.1336341
322.4055091
310.3728208
332.0613223
323.0575709
320.0355625
318.5425308
295.1902988
305.5253196
297.9284482
294.7965753
309.0744367
301.3526329
309.5808956
305.3582353
299.0309454
301.3926952
292.9346999
278.3025413
286.9392564
286.5636461
300.9849111
323.266077
330.1394552
329.9550749
292.753492
288.3731669
288.6313815
292.9606836
297.0946191
309.0834129
305.4325876
326.1844006
314.5469036
315.6991
304.3810595
292.8915483
283.9843575
287.2006742
292.4907652
311.6697984
317.2937883
309.8737144
298.7190774
307.4345064
320.2421369
325.9840481
321.4252095
318.6034558
316.3109893
301.9889134
306.6170488
314.524019
322.3911478
321.1457007
320.7626321
290.5836908
295.6955548
296.2708178
300.6656822
290.7581505
291.9592593
294.0818986
312.6726658
318.5045781
328.0008436
324.1051628
318.6757612
315.4793644
316.4523997
311.5288318
304.8025608
295.1776968
283.2153181
281.1188399
281.6558688
295.8090167
306.8386591
306.475976
300.4250119
310.7578393
316.8344628
327.9493097
351.3838202
335.8117809
284.8797673
304.9462468
278.2997478
275.7943372
259.0642938
271.9439945
269.0523592
281.1059717
289.232735
289.7056671
282.6744153
278.7962719
290.7935686
284.6331046
286.3000655
288.626771
284.1602291
276.8494768
268.5368938
287.0311908
279.4351698
288.7576107
316.8621781
313.2437292
309.7429243
303.8465608
310.4536302
309.1500117
306.7680347
298.4177824
287.082032
291.8682665
287.0689052
284.137729
269.6159434
273.6358299
277.8385195
273.8288145
269.9608945
269.9635843
294.468789
281.8401135
291.0135745
291.7143772
302.6222537
291.3277195
304.0128144
317.5630222
321.9938579
333.5354097
345.2693744
321.3838297
310.1833374
302.2616267
295.7192959
303.495331
288.1333356
295.9637507
284.729042
303.159627
302.8273923
318.7119858
325.1834117
310.7192461
290.583845
286.9646495
271.5513777
288.8985282
305.3565881
307.5867445
293.5909499
301.5127366
296.4892757
285.7345908
284.9809508
288.9025292
286.0026648
279.1057642
294.3384938
290.9082375
258.2219571
285.9585628
282.8792597
278.7553292
301.7258936
316.967739
333.2811802
317.1662744
296.0861823
294.3574299
278.391786
272.0046649
279.9779522
306.6914369
302.8170421
296.8200965
307.4714526
306.6097895
300.7095183
283.2056846
301.6711974
298.8103865
298.089667
312.3629747
299.2984085
296.6476438
290.6792462
310.9480444
293.7764603
294.583133
298.4386606
302.4140806
305.0281105
306.8766014
312.1059698
307.6177266
307.9869557
307.9295526
306.1737211
310.8477467
306.9987052
309.6598475
301.0070838
291.0092785
293.1263144
271.8018219
292.4781501
309.2512352
293.0343459
284.0990369
286.6598034
294.7684772
298.4713611
301.5387299
316.1566448
330.6078116
323.1103698
322.2689136
313.1570198
305.1933806
312.6401297
309.0465079
313.763922
307.5838129
296.0352085
298.9269597
289.1780288
300.105514
333.7210103
328.6756634
317.0139274
301.8763942
323.6054874
326.7931582
310.4081704
320.1328399
312.2987695
314.4459762
295.1896719
301.2880219
300.1419807
295.3778746
290.1693652
284.9931714
288.2715065
299.7265424
292.5006447
299.8234675
291.3782041
301.3024756
306.249855
309.4790881
320.0174364
309.4296416
306.5312169
313.6370184
307.6965082
307.9318047
300.0016342
303.4274159
290.5292379
273.2767677
294.3487177
302.9381743
316.5915568
294.6883381
275.4783627
274.8492506
281.0529089
297.3062589
300.5418839
298.6963779
294.4407819
289.606407
284.840723
277.1171697
271.1908658
258.2850401
260.6208223
281.8735665
299.648127
313.4194614
309.9278019
325.9368941
321.6758811
325.2815802
301.1129309
297.9868261
310.8345374
308.5851348
295.0319194
312.9082588
307.7299191
302.607079
307.1478644
305.0047864
298.0634792
291.5730547
301.0400909
297.6412737
308.8914535
318.0947766
318.0200148
303.8635342
306.7609782
311.2102373
310.8500318
308.1942402
313.1937518
313.9680779
309.4828983
306.5681474
308.5711148
307.9370033
311.7993961
306.2582347
319.3652669
325.1436752
313.729192
325.2620862
286.3933518
317.8016711
307.1134136
303.4889066
300.5302778
296.4477028
299.5160526
313.3105589
301.1942087
290.5036841
296.4074267
304.5724067
301.8355598
303.1788929
308.7029513
301.9321286
303.0617933
284.9614121
275.8332806
275.0173267
287.9644047
291.7099473
309.8244196
290.355228
310.271214
301.98591
300.7096818
303.2113716
301.3714147
296.1203328
290.6837038
291.5537704
303.8327342
300.4952007
297.3342386
279.2347225
286.4421623
284.9472676
302.608517
292.5886363
299.1794004
300.0773896
302.4961087
315.1289652
314.8243499
308.9179771
294.3340431
309.8022119
312.3886534
311.2223802
309.4404721
308.1279704
297.7022437
299.1671215
299.6810108
296.6488433
298.7137522
286.8557899
278.6399211
290.5281492
291.2511202
277.0002016
292.9181756
279.590655
279.7716177
286.0544774
282.2209858
286.79316
278.2662525
281.0823228
279.2183586
274.8668765
295.1991218
303.9069969
308.6143992
299.270682
302.7557106
304.3320559
302.6689583
300.1841916
277.3969253
280.0597384
281.7949981
286.1368557
288.1539272
300.0894268
293.6561738
308.8991151
310.6440287
316.2262999
325.247159
316.5781767
291.8592286
298.2627281
304.4240407
293.643454
275.4995943
272.9818227
277.3252245
270.1512299
281.1306389
274.5185613
284.1694232
285.4536808
289.3315788
288.5465693
283.5875677
271.8722834
281.5732482
297.2135565
287.7956827
298.6635029
294.3053041
307.5614418
309.8661002
297.0431191
300.3390015
296.8008395
299.6226675
283.3254299
296.8982937
288.6098756
280.8237836
293.8810906
304.7412088
307.1261323
305.0747224
308.8382892
295.7208127
293.1129925
288.4855922
294.5418886
301.6674516
295.3726985
301.7265186
293.6513728
294.3599526
294.5405922
289.5207356
290.4504382
325.8077867
324.7212216
303.6220618
294.1951426
292.2894511
293.549145
301.5399752
273.4323549
275.482254
264.2532809
263.7992288
265.4159453
278.5449807
291.148387
284.0441516
291.527127
290.4482165
311.4414132
321.8228376
336.0358346
280.7183301
284.0927936
278.6462905
288.3819383
276.2311695
283.3121663
281.0137406
272.7903648
279.0162284
270.7112378
289.1850965
309.2746706
315.7398093
290.2571763
285.394412
292.0018173
289.0603358
287.1485832
282.68188
277.1268887
305.7631333
312.3599341
304.0623723
287.0748627
301.0942982
310.3496073
309.6410888
309.4728252
316.0814472
314.1569237
329.8839679
313.712956
308.1013951
317.8288579
297.3251162
297.6993391
287.6167114
301.1711715
303.6534362
298.7778505
269.3949668
291.4161986
271.2198284
277.4320348
281.2217065
296.9079686
286.2011775
272.1957045
274.0693599
289.4570005
292.403111
301.1095597
301.7318642
312.1137924
313.3108463
302.4839477
297.8463645
290.863302
286.5867282
277.9338361
275.8020963
273.2898188
278.8951948
293.4451589
294.8753916
303.5842107
312.8647165
315.6728825
316.238291
317.787941
312.8944185
308.904762
304.0356117
294.0598331
283.3172642
285.399654
271.1577377
260.821451
271.9209486
284.0788979
299.5700749
317.6848061
299.6472144
303.2513224
307.0982723
302.4843672
297.3277473
300.4794335
318.6545288
312.9019466
310.8188796
293.8513834
291.7968047
300.2127865
309.8336185
297.5036252
301.9156763
307.7992743
299.1914285
293.0961411
306.6697987
300.6701632
293.0897171
284.1435508
281.7437001
295.562712
310.7873673
300.7387739
312.8759357
313.7894461
313.8941009
293.0243751
298.3814817
304.9274777
289.2255942
285.6023095
294.8387375
305.7807943
322.897038
300.7828786
285.0426901
280.7627178
277.6515579
265.8664963
281.8084793
298.1617164
300.5745573
309.7863991
315.1121533
314.1978045
298.5455688
288.2295144
302.1955155
299.2353536
297.1496176
282.4476478
296.4337203
308.126036
300.2379118
307.0201554
279.4975334
268.8656964
279.0985022
280.9779516
283.9753465
297.485403
307.1978935
300.1270437
294.4319957
301.6643874
312.7095883
295.33627
292.6836918
309.3017519
306.9283935
305.067869
303.3256693
306.5920597
277.5453318
280.3207014
310.1875711
311.8283336
298.1070857
302.0841255
294.9656607
283.1773563
278.5435493
290.9915201
302.7416733
301.2923339
301.7782819
299.9426486
299.0264206
292.9407868
297.9106668
299.9258425
329.0795507
312.0745765
332.3445001
316.1838271
297.5494942
278.5531078
287.6517578
291.0980421
277.837341
302.0034842
318.3907852
306.4961049
297.7824371
304.5130229
297.9557517
307.1237993
323.8045843
313.378676
308.8723304
311.2301481
302.7919231
299.7208491
302.1007403
299.0596498
297.8683907
301.6966766
294.8235094
295.0029633
313.2887656
319.192696
323.0183679
302.1678143
314.173347
315.1487373
308.1018976
318.457658
305.4606497
297.5190227
282.7804637
279.0887267
289.4214716
295.2726409
280.5041672
275.6225939
298.6734982
300.8649881
311.8417189
325.7845798
325.7689587
326.4532823
304.9464114
295.9882729
292.3261495
288.4536125
297.9750929
300.1233588
296.5945681
276.2115735
292.7326853
282.9248862
305.3053294
302.1210683
289.0362146
297.0674264
287.3707558
310.1985755
297.8520011
291.4079543
289.9770855
300.8330791
292.6443141
290.3910528
289.0973899
293.9815304
302.3280169
301.8210116
292.8093544
283.192347
291.2480765
291.3094877
298.9488241
307.7833994
301.8200023
298.6423627
273.1885701
284.5396687
277.368432
265.6987946
282.8496795
274.9740595
294.1951227
301.8457141
307.6450888
298.9084101
296.0747742
310.898061
316.5978398
319.6209047
305.1378517
306.7547282
289.0566866
270.4414996
271.4200357
280.0831996
287.412265
292.0134921
295.9681524
268.2367726
274.5295199
262.660094
275.3852594
275.7644568
275.8254513
259.6302031
270.0031608
272.4570149
261.5668468
276.8547649
280.0064498
283.9046887
289.709901
298.2938128
295.1172769
297.0866603
279.365285
277.1020395
268.4879214
284.5363597
288.0668938
288.04204
291.2149314
289.5123472
279.291066
291.430173
301.7081969
303.2806376
291.7517037
282.8547987
294.8051052
289.948966
294.8020861
302.8293198
282.5284882
271.8935069
276.8430476
301.3752372
284.7687082
277.9811511
292.3777048
289.3751683
286.2997932
284.8641753
311.3047924
309.8652233
305.7681998
290.1860996
287.7365087
291.8947056
294.0017337
300.8947427
288.7222577
293.7374209
284.1324926
291.7508684
302.3342556
304.4463569
311.7380522
312.7316495
321.6540414
313.715933
326.313384
320.8791755
311.884459
300.6319511
288.5605638
291.3059789
298.8419435
298.2162405
289.7331969
295.3530509
302.8667372
310.3255876
302.3795711
323.808578
268.296041
278.3217108
280.7228943
288.0864661
287.178087
282.0636468
287.8253041
295.3090237
304.6129485
292.6967123
290.8720933
301.764592
291.343754
285.0929509
289.8982908
287.6088649
290.5732967
279.8788423
282.6692636
278.0868051
289.7104888
294.6339657
301.5962412
296.9043599
302.2374544
293.2806886
309.4257064
302.4858177
278.2698826
263.6768968
283.3596049
281.1646511
270.0002673
269.2554054
267.6381354
270.5864362
285.0453283
305.2158233
292.3482712
289.9843376
311.2694453
301.1468175
278.4413605
283.4058509
275.4781782
283.2623709
293.3194831
294.6078935
306.9374401
294.7435532
284.3168782
282.5679924
277.7812747
282.2667745
279.6158873
284.4990854
270.7527929
279.6576769
300.945902
316.5586378
301.2406692
296.9167405
321.3073626
315.8221123
309.3534805
327.1370922
320.4068272
316.4535031
309.9327341
318.9724061
323.8466502
336.3841783
322.1224381
306.0237813
302.9024315
306.8727632
308.8229414
316.5600419
300.8797574
311.1351136
325.3471441
330.8812974
322.0743449
325.3889106
324.0730757
316.1667752
313.9174749
302.0025153
300.2686523
306.0791439
310.3227896
293.9993076
301.9615288
309.1462112
301.0486896
304.745327
309.9581752
313.797576
312.5139269
311.283703
272.8803501
274.810309
276.3090435
288.8313089
274.8381887
275.8027545
283.8242274
285.4732138
283.3348886
277.8058525
264.5610869
270.7903154
275.6141174
275.218846
281.7230852
282.0565501
267.7867224
273.9471047
287.3864106
289.1451874
299.7324203
313.2873012
301.8344203
283.2699838
289.9025377
276.7321827
299.6971675
312.2845731
300.0111686
319.5332778
321.804625
314.6180274
320.6388565
306.6907994
296.0481766
300.8574367
304.8455941
306.302368
307.1795028
301.1057255
327.5652592
329.4408818
332.8066041
326.2503697
332.2781208
331.5584832
317.4310786
330.4916037
329.1814687
333.6355726
317.3978107
330.1454163
332.4219249
336.7007108
330.9828685
312.3323936
291.3299389
282.6795538
292.0521772
309.3510884
299.4016491
278.5538666
282.3262562
287.0241789
288.6446796
294.3326275
293.7655059
296.2901755
287.7192353
294.1778956
287.9765875
289.3755107
314.6494811
300.192665
298.1636397
304.0650366
295.3931281
289.8159608
298.1880856
304.49613
285.9921283
287.9258012
286.4454744
286.0966694
285.5217495
298.4704843
308.4891241
310.7589621
310.0687534
291.491739
290.0850951
288.8556385
292.3257351
312.2263872
333.6360362
316.3511981
313.736512
301.5909307
293.8645374
277.6094257
304.3634221
294.6567647
308.4830524
301.1505001
288.2165665
291.1542966
284.466017
286.2799708
298.3762742
288.2997358
282.2532424
284.3515463
277.3067118
258.4037544
269.8037682
287.5577048
270.6973553
276.4801115
286.8258641
280.7944256
287.3410677
293.4530998
291.2935812
307.2122096
303.2494157
298.5915885
303.1827051
308.1407455
297.8041902
296.6572997
307.7406993
308.7121509
316.3946136
315.0365849
315.6455589
300.6014505
318.0691863
323.2332496
310.403793
296.0807014
307.4869272
287.6718821
293.6246415
300.3629617
290.7121401
294.6311946
294.8340776
309.9993256
300.2846902
311.7150271
293.1003456
280.6112114
274.3363431
277.3695504
283.0490328
295.2027685
291.2896756
300.2122946
308.3528326
307.2160844
289.5216303
272.3440826
292.0480956
287.7628279
279.8179368
298.0181
287.5486259
294.4069129
297.5414073
287.0491899
288.7916225
286.6902508
285.5951226
285.2553402
293.4123636
289.1703045
288.6681568
293.4419359
286.6187961
283.4869203
306.3252728
310.9068413
315.735513
303.8932848
307.4387687
296.4541768
308.1124389
290.7425694
279.2725933
293.092062
285.7975177
305.8000047
315.983252
322.9466761
319.6483366
313.2503378
298.8613182
308.5153151
310.4351589
317.6801572
293.8843259
292.0321208
311.3262587
295.9030477
287.7797986
278.3754776
290.6967133
286.5999026
295.3234642
298.7453225
302.8433096
300.5699974
299.2672786
314.7310131
307.5694535
303.9036843
301.990334
292.6053297
286.2979183
295.7733424
297.3794929
297.73111
301.1632181
294.7549628
290.1087451
275.911816
270.9773616
288.9154037
287.4116041
288.2156367
294.594255
311.8419227
302.1514606
304.3900484
308.037449
314.6559353
308.5302774
305.4793419
324.4030809
312.1194808
290.3145375
291.8681927
287.0298507
296.425877
302.8131063
294.6498838
284.9898356
283.4204284
282.4560857
286.5380609
286.7988155
286.4339707
297.1965629
291.0637646
281.4798818
280.053547
285.1937634
279.797773
273.0129947
279.4841849
281.7348469
282.8186931
292.5829314
289.9945232
291.1218201
277.9287894
276.2575574
267.8624745
265.8344403
272.7942921
275.4558649
278.1143342
281.930992
302.4827888
300.7209079
296.4556788
292.7559079
291.6398698
274.8100105
276.0482065
313.3347326
304.7578975
298.5634138
308.2796468
303.7321629
285.7964183
286.5169397
291.7761211
305.7116987
304.0917321
288.7257032
298.5900455
295.9049205
298.6619308
317.3343319
314.7895282
304.3310559
308.1146664
305.0113298
306.5767811
310.5583409
309.9293798
299.2491728
307.4374926
312.3602633
305.9507827
296.5430167
300.7544668
294.1436514
307.8958628
295.2893477
304.6238151
295.7360273
290.4602668
293.0334318
293.776724
299.7816737
307.8945445
306.7822904
310.0471761
294.2289317
311.6098424
316.3495689
312.0593863
296.1135447
302.0903285
319.7092782
299.1797482
303.8731149
300.552285
299.8120941
289.4283916
288.9299525
281.1017195
275.0022936
280.9954031
281.8929229
285.779366
290.8987205
288.1351913
293.6765437
295.1371474
303.7013338
310.740523
318.9784809
318.3740925
309.4591425
302.5700624
301.4594776
281.9900731
277.1576704
273.2767604
270.1172607
301.3507518
310.208085
311.6399162
302.3168457
306.4359914
288.5233529
293.8759933
307.185244
304.1371692
305.8948315
315.3291388
318.3433144
306.1629779
318.1251285
305.4100839
302.9248663
314.8592751
329.8557784
330.825854
317.7806812
296.8311781
304.8012629
306.3808991
314.5132652
328.0982422
333.5685182
319.8946505
296.4099159
286.6919427
283.9331677
288.5553614
301.7672168
314.6943086
311.9616045
286.846997
279.6473684
290.2643541
287.7859708
303.7060621
289.0226375
292.8236772
289.9072302
291.8914173
312.618786
305.5212749
312.39428
302.2532828
293.7002998
291.743236
309.0016435
309.7972703
299.1918184
296.5070899
283.0186262
304.2191072
312.6561228
317.5824471
297.8734905
278.1261455
269.509567
283.4398781
269.626514
263.6986529
280.4174898
286.1043682
294.1387438
291.1399226
307.3627664
311.8420235
308.7060097
314.1000481
310.200319
296.1695156
297.4543514
279.4527607
270.8654855
262.487702
277.132182
286.234633
271.7872072
278.3105926
275.7749324
295.6268142
295.8635439
293.7573884
290.6723863
309.8689315
290.3745427
283.6063445
272.9350285
275.7874923
279.8174248
293.1717105
284.9290692
282.0505929
284.1273347
284.6080454
292.6265874
305.51652
288.4162019
304.7995411
294.6010277
302.8314461
303.6870659
290.6837294
299.3953319
304.0276271
285.5044311
288.1377753
289.7433911
297.0888531
284.4472681
293.9127382
294.2951812
292.7420231
287.1034909
289.5670322
284.6506484
284.8570881
282.6609075
291.518817
304.5828554
314.9722312
302.5454799
293.0066576
296.8726223
292.9633859
303.9224657
333.7976954
327.2566858
327.733584
311.6575147
301.6878385
294.3706165
309.769653
305.4457703
299.8116469
315.3740062
318.4789171
325.4055804
312.4464137
293.8339286
301.250138
314.4006091
295.6759354
301.4161615
304.2894953
287.5142623
289.1556721
277.9729427
285.4497216
296.5887476
318.8529602
324.0372146
301.1597642
287.3044189
295.7247998
294.3116121
290.6007048
296.6130608
288.3454115
292.9965385
300.4612233
293.9841439
298.4657898
311.057006
303.9667959
286.5158803
286.0964844
291.1004244
295.361745
296.7851025
302.191119
295.8989739
305.7938445
315.8579438
301.7757555
292.6122007
285.8806868
284.5692805
281.9941548
264.4085967
264.8167244
253.6530146
257.0651864
251.6584475
260.2841287
302.4282322
308.806864
292.1096147
300.393786
297.9997171
314.7713906
328.5294479
334.1630739
303.1222107
312.05194
297.781041
297.6272692
301.4931154
319.1521962
310.9037397
323.4180987
303.7238236
314.6424338
300.5593863
310.0428534
274.7906281
278.9690961
285.7318353
279.8639871
282.6214902
294.1471073
298.405444
302.0580922
310.3670776
311.2219103
320.6618347
307.2979933
308.8348571
282.7631729
294.0993362
294.6020039
284.894017
293.3944379
275.7508518
269.5335466
253.6043089
249.3282086
263.3281784
274.7344453
287.3362778
292.5806943
292.2926946
299.6066038
292.4257661
296.768256
291.0655566
300.9074193
290.857485
291.2910088
280.5285701
279.9957788
281.5504065
280.609984
269.5545901
257.6221794
271.2550052
269.8552663
267.1492531
273.6874732
287.6317922
294.8119902
289.3507905
287.0626662
289.0081064
299.9491133
296.0666574
298.8180728
284.8775538
272.9073224
271.8319151
277.1768478
285.5797578
293.6529051
284.3965652
296.621622
305.3637241
309.5462363
302.116614
295.7565185
284.7815519
277.495452
270.0310513
293.9869643
298.769552
293.7569459
307.137405
329.504693
336.1148219
329.5939779
311.5814051
320.8487071
308.1118158
300.2332275
296.5035096
290.8465712
290.5694713
290.9629073
297.9919788
286.3824506
302.5474996
305.9927348
310.1420862
318.6805209
308.1979707
313.9573121
301.6072495
300.2596411
289.4549905
284.9758496
301.9876899
282.8262394
288.1991379
293.7006541
302.1648963
296.2799576
317.7165341
304.9429156
314.5564187
313.3207183
321.6305507
325.1506922
313.2884413
307.1287848
302.4525861
304.7080424
295.7333079
293.8565994
294.8973463
315.3635289
325.5633979
335.029649
323.5245416
294.6286648
305.6220169
323.6489852
296.8637167
283.661494
284.4765662
286.5231833
297.287692
302.738181
310.054418
318.8625272
319.9445993
317.4934144
313.025499
310.3028107
301.3571327
298.1576442
301.6543145
308.5496157
320.6472024
322.0206718
311.2758713
303.2811835
301.6261577
305.3567425
302.091563
288.7916591
292.8551943
277.2665093
276.0014738
269.0596503
274.650706
276.541036
271.976197
281.0804004
305.5766105
315.5653201
303.6811966
293.5815596
290.7248592
294.8040374
294.8994991
287.7406876
310.7282104
311.190181
313.2646888
325.8246565
309.6616708
309.0695143
309.3719741
307.0933846
283.1181843
281.2095195
284.4886457
293.4312621
292.4745549
283.3832369
293.0598723
300.0729602
294.249901
296.3941757
305.0841049
309.9710822
264.9226335
287.7583155
291.8570102
302.2695128
310.1932206
333.3238124
315.1705214
309.8692716
303.5656564
307.8919386
304.8505355
308.1214987
306.3166806
292.1080164
290.7033571
287.7441566
289.4880298
286.7190437
273.9834755
277.5538538
295.007637
282.1261226
283.6166281
285.3450039
277.9762959
273.9400437
275.9592634
292.255185
299.6490825
312.6684389
313.5396454
307.9398245
321.5027249
313.2392754
304.9440857
303.9227526
294.1789516
291.414077
294.631101
302.6281557
313.774239
299.9135036
293.9451888
303.6790368
318.4499429
312.2260889
305.426867
302.6837045
304.7516215
299.1044174
295.9342044
293.1249083
294.6938545
291.8623948
306.1059033
302.9555837
291.0271975
306.0357303
321.0729155
311.9086746
307.3674457
311.1556082
303.6693238
304.8176107
316.8235317
319.098348
319.5610611
324.6600883
318.8704371
320.9115011
328.324977
315.0839195
304.2439791
305.5638056
284.0420306
280.440383
275.1076861
291.0598127
294.5338665
316.0260362
318.0874493
310.8110581
317.1750028
318.2903208
303.1492531
301.0942717
310.0451097
308.4706798
322.000528
321.0441897
338.0032515
335.0143002
335.092844
340.5252955
358.7400488
339.2076288
327.9662557
328.256549
323.1715423
322.5422756
322.6731594
310.343967
311.1156979
316.1884449
300.1149226
290.275577
282.3553657
287.3481338
296.1313491
308.9765182
318.7372316
321.9820453
319.6676177
317.8443616
308.1023218
300.393061
321.0057766
320.9056698
320.9285536
308.5611376
315.7775416
307.0402715
322.2012794
319.664266
324.372874
307.4548756
292.46152
297.8355275
288.0621449
288.258971
277.6614462
278.9331219
268.1000736
278.8397757
280.455148
295.8068501
295.4317787
302.3294292
308.5391831
321.595678
320.1075445
316.7807848
304.6068463
312.8043261
301.5120645
305.2352546
298.213464
298.6660692
288.7082095
283.653883
290.0634736
287.2419151
293.5804747
289.0878053
281.1616303
268.0699884
267.1691976
290.3651222
312.3856183
320.7152712
302.8023218
321.2041068
309.992648
310.2905888
316.9540847
328.1687139
327.3667885
311.7503608
302.3294688
302.1146473
303.4043216
296.4199267
292.8336244
297.8341843
280.5097804
274.4436348
282.7135148
296.8166054
299.2256106
300.4614984
273.8301888
280.2975599
283.2044938
284.1343337
284.7845942
280.8344738
287.152007
294.7569607
290.5390923
289.7755727
295.7457509
297.1634518
294.3531237
310.7469747
305.3420494
318.7297336
335.0978069
311.2026574
304.9844211
288.9299987
300.8516386
290.746318
285.9000538
282.1309029
286.9497615
287.9643808
294.0864383
292.9019561
311.1416283
315.2932058
307.4166071
320.958714
313.0682468
308.2182465
307.9728171
304.4701087
290.3291308
294.9022382
291.322826
298.4905866
291.252512
294.4121785
296.9588284
306.3817433
295.8094575
302.788806
309.7931401
299.7275987
289.9068963
276.305369
290.7492688
284.3756635
291.2646747
287.2478304
291.8582398
296.7945884
316.9987539
324.6703857
321.124182
299.0202238
331.4791033
333.383392
337.2688168
321.8385564
318.7014566
308.4597202
303.6117005
294.3377492
293.1336865
286.2974297
289.6993135
295.0173408
298.0068518
295.4516378
298.0686788
292.9390475
298.4000584
307.5631954
311.216517
319.4979157
297.0798287
300.2971141
291.6529719
296.2154956
293.3426568
279.8511651
279.5855658
280.215679
285.4026828
293.2602635
283.3542287
291.3763868
284.784087
284.3387679
286.8676504
294.8304979
306.1644465
292.2827672
303.1824237
311.3662475
273.7376972
268.998175
273.6769563
267.8258129
271.4058484
286.2488829
285.735687
296.750426
300.1083218
293.1599438
292.7068994
279.3186329
279.7699426
273.8299717
282.8078395
283.3534262
267.8357761
259.4297534
257.2141471
280.6498163
296.9845765
307.9746175
314.9796614
334.0745225
306.8963516
298.7769682
292.574981
274.1113139
270.2441858
276.1775427
282.8172761
277.5294396
279.6834484
277.8898605
278.8991504
279.6141615
273.6768761
284.3461503
282.2798528
300.6638782
307.2459271
301.196905
287.4051909
294.5480042
302.0210814
310.8055221
308.7349023
294.5353932