/*--------------------------------*- C++ -*----------------------------------*\
| =========                 |                                                 |
| \\      /  F ield         | OpenFOAM: The Open Source CFD Toolbox           |
|  \\    /   O peration     | Version:  2.4.0-MNF                             |
|   \\  /    A nd           | Web:      www.OpenFOAM.org                      |
|    \\/     M anipulation  |                                                 |
\*---------------------------------------------------------------------------*/
FoamFile
{
    version     2.0;
    format      ascii;
    class       volScalarField;
    location    "0.0009";
    object      rotationalT_O2;
}
// * * * * * * * * * * * * * * * * * * * * * * * * * * * * * * * * * * * * * //

dimensions      [0 0 0 1 0 0 0];

internalField   nonuniform List<scalar> 
5120
(
300.474839
307.1195954
300.0355864
306.0494722
308.9890628
284.2778789
289.8762358
295.3578873
289.401173
299.3464829
313.1237687
311.6836127
286.8314857
285.9804546
306.414584
319.0146219
320.2171856
329.1373486
327.4058112
331.7347247
312.0071861
325.9638927
318.5183004
326.3039764
304.7259614
339.7822634
337.6376462
312.0321374
328.2908021
334.0966371
307.9154288
286.5077016
289.9201146
291.1350948
306.3698809
314.3448985
331.6932451
322.7488822
298.911796
302.4003226
319.0930814
313.7766948
328.4820556
326.3544587
295.9481091
296.4578467
275.5453051
277.8006588
278.2001224
307.5626176
328.52085
284.636379
272.3039274
261.2869088
261.1439959
277.5474342
277.1612896
297.3347183
324.0422067
327.1471654
296.6449983
290.3182494
284.3715919
261.8222267
273.4032654
301.1847555
322.009246
282.873724
246.199437
260.7463389
254.864045
283.546807
302.7029391
283.3032227
290.537039
284.6665748
282.0603868
250.1377439
254.2543653
283.1652282
283.7558846
291.2953081
275.335787
270.4283018
289.3584104
276.4826942
293.9496153
277.6006318
300.5306524
297.7862213
291.994359
283.3939672
306.7485484
318.1970691
343.4007197
306.5565915
305.3136964
308.8902061
301.7683991
290.6158045
215.2522285
203.7914454
251.8673193
253.6469608
259.6778017
276.2222996
302.0986758
332.0805729
327.2818042
302.1570456
288.8607879
350.6739157
343.1886097
306.3282067
324.4547876
296.6288717
292.3387631
269.3351979
274.2905792
230.3412337
328.7165421
347.4761945
353.6019809
348.8590166
377.6232186
333.3891213
313.3068811
273.6762617
268.3000191
277.7884906
297.553052
279.1505884
287.0000676
292.91686
274.8359666
287.8407614
311.8247169
318.1415353
318.1309149
334.5498856
284.6807614
278.7896095
293.7460055
314.1646095
315.7906623
319.6543588
325.1599024
336.6829328
336.4755283
316.8680896
294.6997392
287.7451298
290.8304581
301.5383125
281.7100245
272.142453
242.1602202
245.0890417
257.4921158
258.6675084
244.3424988
282.0086037
281.641139
272.9436358
302.8336322
321.0059702
359.7188738
317.9820343
320.7304003
318.1469495
341.2337413
333.5327617
314.728618
301.8756857
289.048602
277.6953317
245.5163915
246.6470593
265.5935344
249.4978186
338.4919295
318.6707281
331.3259271
336.4395077
297.1102999
295.447936
287.2403047
297.3502665
260.1166564
275.1562701
240.2357433
257.791044
283.4649219
295.7575922
299.1149434
313.7425164
337.6710111
351.0170195
336.1001746
330.145834
346.9677737
320.1945856
302.7156905
292.8984233
299.5391278
287.9187838
308.0044373
343.0126503
299.859355
296.7361724
327.7442005
341.7469317
279.1830887
260.6051271
252.0521095
270.7055682
309.6682553
307.6982451
305.6695611
316.718232
283.4883678
264.0174593
262.8570161
274.9323476
261.5619979
291.5535132
288.9891224
285.9778853
317.0026081
332.4416872
313.3397929
326.5829984
341.9678176
346.659979
343.8886615
368.1811558
371.3771833
384.1281597
355.45877
298.533245
338.8577348
310.253365
296.4026261
300.9890827
317.0610859
302.8971301
283.8829664
282.0695859
268.8020069
283.1673271
300.4614293
298.6729614
295.7981299
287.5088716
286.7038906
314.8268432
318.658211
323.4816245
315.0812064
346.3502571
295.1332183
299.3914718
327.2095859
331.1073909
317.7900866
322.6282044
328.1915344
302.7786159
284.7078563
285.3807472
311.4430701
289.7923917
275.8255133
267.1860018
285.0678767
289.5976618
291.615354
290.0878968
304.5850765
306.4350715
296.0249954
284.1226979
274.7299141
300.2536941
313.838714
320.4900596
261.8876332
247.5668689
272.2648458
288.3153319
299.0745205
302.6142457
305.5194611
283.7594268
281.0027045
315.5891987
295.5819683
289.9634602
286.0102734
289.7396954
325.5176236
351.6860999
352.3443613
342.4093788
324.8330494
326.0668073
307.9247768
302.9157893
294.3538352
315.4873456
313.8933233
317.7678857
329.6247661
353.6387957
313.6864643
288.6357639
292.9389415
278.0611135
328.7822355
324.3184668
309.1790483
301.7888257
292.516577
294.6328179
289.0731293
286.0912363
305.6713844
314.112627
311.4376718
311.3277077
312.6245939
291.6941989
311.4985305
336.3183386
342.4615925
304.5416245
292.1398145
285.5248307
299.4946009
289.9714027
301.926166
289.6717187
305.2096643
312.5679462
348.586091
371.9014983
356.1072699
331.9588412
336.9015962
325.876211
313.0662278
337.7798325
329.7993427
335.5851482
299.6841205
316.2796424
288.7159868
289.5487908
268.0746549
266.8579172
252.3070102
257.9244837
238.9553577
253.4506404
270.7263635
285.6311689
311.4070176
352.2995818
336.7401827
317.5688044
304.9394901
324.99469
332.0364031
303.0917774
317.8510268
334.9267709
311.9635491
304.1586953
279.3030311
262.5771632
271.3173729
299.5559174
327.8772275
353.9560019
339.9336283
345.3224751
301.8017163
329.832186
350.1061418
357.697613
359.5755248
341.9657412
311.2686113
293.4094058
266.8760447
254.2808721
256.1237697
286.1785274
277.5254955
298.2093213
286.4407568
271.1150097
279.5359449
258.0145138
250.8667472
246.2736201
240.2814552
201.2134369
227.1418972
251.8035255
244.6890115
237.1010612
248.2204406
268.4354487
287.2461404
293.2299175
306.7969972
306.6625287
300.6598806
278.943946
274.9016748
259.1797371
252.3146466
239.8525923
249.301551
261.577979
263.0304192
284.7818885
327.7617416
316.7304235
331.1417086
299.9700537
295.9511394
252.8828337
270.515374
285.460182
278.499885
288.5912198
297.7042199
304.7739577
340.0795549
335.2200694
315.6785352
329.5383329
300.2219857
322.363377
320.3229395
325.8961989
285.497969
272.3424733
283.4117739
255.5702708
245.488715
294.2161762
293.3854775
327.074152
340.2050621
342.6804539
348.1864559
359.0132586
299.2287188
297.4404821
288.60373
309.8912608
304.8081959
306.8057479
286.5204793
275.7985132
279.5323922
262.225793
269.4778403
288.7646909
290.2024503
270.3694212
266.7517753
266.7212722
293.7803428
273.8860889
284.3609893
315.6000674
272.8302898
287.3829112
266.7900005
260.1972185
274.0103816
269.8635926
261.837261
292.1862421
286.3212103
271.742645
255.1926392
268.5965046
259.7259406
296.2628312
284.1182955
254.6565603
267.3910892
311.2924958
307.051684
278.8153254
299.1593247
310.4641536
339.9332213
355.2992074
371.2762461
341.5725982
354.2364149
317.7019914
301.082467
275.9309765
290.6959864
269.2723677
270.2433347
272.9730521
275.0320357
279.8519817
272.2849451
265.396836
266.1657868
265.0016979
339.1059875
347.383265
342.4332726
339.7277634
321.9296783
314.5887342
285.0625887
306.4524908
343.6196419
375.4179721
359.4044037
360.9707059
315.9936328
279.1369729
257.2683529
255.0169633
258.8377878
278.1256246
289.1745092
322.7454919
356.5248409
342.4874857
355.8133433
332.8814662
331.7614782
340.2831907
312.0311061
310.8886916
306.9969194
304.4099306
320.7991241
313.1000274
330.0655033
352.0630756
346.1433139
326.8466202
321.0590412
302.4337892
301.5565908
337.1985676
290.4990586
281.9401534
257.1003389
267.7564694
275.4629233
266.8055021
291.812907
289.1192975
294.6727056
298.7591998
284.522493
311.1297069
295.3257038
314.0656135
288.1868649
291.0473832
275.8310393
262.7594314
274.1238718
299.6882683
297.1915461
291.2421949
303.4981787
304.8411895
281.8994434
311.7337437
291.7697695
309.0420707
311.1380182
337.6051828
319.3239385
352.7474911
357.2408038
360.1825225
332.5029786
307.2940766
282.6272062
276.3166204
295.7853044
266.7468341
295.8560317
311.9700166
316.49356
294.8155065
277.0978226
291.0583252
311.3290406
341.9166339
323.4399889
312.2386643
290.9686751
273.1116583
242.8823578
248.3546207
250.8841635
262.7168926
313.7833247
294.7742852
306.325272
308.5212547
307.7261824
306.8888249
286.4320237
276.0000195
313.1853457
292.5554781
293.0468537
306.44562
286.9369204
283.2308282
289.2523038
316.226103
296.7328417
274.9327372
294.1503872
310.6775736
298.4751878
294.1245541
294.1400856
314.3201564
291.8612204
300.4549435
300.3640359
294.9317942
281.2216707
297.467806
314.5433927
295.7231771
274.4641397
289.3417451
293.421752
304.721009
308.0015102
319.5037361
311.4192521
296.7553285
330.0287869
334.8711955
322.1367091
294.0269248
313.6407375
292.6106899
298.0627024
300.9516685
297.9954859
297.4196832
287.9535979
288.8056902
313.7325562
302.6272192
333.4888522
321.4329178
302.8884941
298.5836589
290.3391815
293.3522737
310.8354513
302.945924
328.0807718
338.4731157
302.8173743
287.3459828
298.5755745
284.6731158
333.731625
297.2496046
330.2847706
322.7625909
308.517631
305.3270851
283.0932574
311.6557651
305.7102486
306.2664014
308.2855793
281.4444666
284.1480449
292.3967707
305.3696541
325.8783708
281.1749793
279.7862766
289.8085924
285.1550685
308.7892984
317.816497
332.6129286
273.7510766
280.7186623
289.3376965
305.9300911
315.373086
296.4941655
260.1462304
297.4921941
301.0408688
292.9375358
277.6426674
301.787231
282.6322367
284.8406903
329.3343229
312.9631287
314.3340915
304.1985382
307.8742929
288.3926576
299.6514982
306.577304
269.3131793
281.123427
276.2958722
293.4334292
292.4617777
298.0736395
314.3161155
327.4581126
291.7899272
296.7084254
291.8143088
345.0868748
357.8644869
301.8588875
291.3328044
284.1802331
283.1021499
283.9353609
314.7553581
331.8501075
360.3434209
357.175806
344.6821837
346.2885693
373.162071
364.5740399
341.3185324
337.3108471
327.6570056
335.92256
339.5925715
274.9460734
287.1452231
348.362913
335.2247177
342.2224019
345.5270478
335.7505528
335.7669127
330.0792998
321.2983419
348.297305
357.578082
343.5414688
300.2448686
311.2818424
335.7700153
354.6800943
359.5381519
312.0268447
262.1615858
324.0389604
327.9475296
345.5302526
330.3648918
295.6394175
288.2975709
277.4263306
273.0447429
273.0075155
286.5665363
277.1525459
288.3226748
266.4156972
281.081044
291.2950079
298.5631938
305.8204478
292.2200528
313.2464708
330.3576477
287.9357012
260.3092624
279.1833565
281.3894813
281.2669492
282.510396
273.4260677
277.718075
288.6204539
296.5076693
303.2016399
308.0057919
328.1462467
326.5153212
305.4866428
301.4902868
317.3908511
291.0643108
275.2140412
282.5616036
266.7280578
253.9793354
231.375476
219.6382892
246.247565
263.4405719
284.751314
298.7265093
282.398316
264.1139723
285.999557
298.7448911
280.2411277
264.0155091
273.2507061
294.1128644
317.7717052
296.6379964
303.9184765
303.9101048
240.9210379
279.4294819
257.2070475
302.2951356
291.5924971
278.8828066
268.2143733
278.1431198
294.5635191
325.0187755
284.6077591
276.2436842
254.7465949
272.3856544
275.6803149
261.3231988
267.4919983
285.8772474
303.0160521
258.3213027
282.4667131
298.5967892
300.3807982
313.8404129
307.3297188
319.5297684
326.0956615
324.0128032
304.369979
282.4376278
267.9838752
248.4190862
267.3304807
265.987407
268.865039
277.399821
271.1905391
283.6236246
279.8426443
297.1650797
305.0265082
318.1069582
295.0960595
285.4806695
291.5154881
287.4997362
280.1779331
258.7426227
261.3585502
306.0936215
292.0309942
309.1204244
306.8056903
322.6590406
335.4818336
368.6479357
373.4893397
370.3439735
357.482799
319.8427955
308.747124
301.1679676
337.8462129
350.6039351
355.1376643
350.5800357
344.1138264
341.8173422
312.0066025
313.4707078
309.7724092
350.9805353
325.7274643
348.0872989
352.9988341
358.029731
340.3888022
338.4612844
331.3360236
322.0419438
223.2502206
230.7657613
230.52516
255.5732042
273.7863696
300.1603985
320.328763
314.3851315
332.2574364
315.8286138
324.031207
298.9906028
302.237592
316.4434208
311.4587652
245.9348613
259.0024424
245.6611407
212.5043159
240.0696472
318.37829
299.7522261
328.4647862
321.3584428
309.7822483
294.7303724
288.6241542
289.6391228
276.644871
270.1205762
283.4699717
283.2179632
275.7985723
318.8222306
295.2965195
331.3202628
326.0956453
302.4516363
281.2308501
304.9842028
262.1379471
254.8821907
271.5136055
298.3999415
335.0789383
320.8118986
314.9888604
288.8328914
241.9393657
253.7668141
267.8603461
257.0673072
264.0465169
277.6827093
276.3297986
312.2333282
287.7923856
276.3603195
262.8914906
268.2490706
320.1111777
307.7182245
295.2115232
317.5009955
314.451084
293.6002044
272.9420338
236.3462401
232.8100365
246.2307027
270.0510561
295.9057195
320.4142967
317.3608337
347.8686046
332.8367597
326.7731803
339.3883716
324.2473225
311.0424175
324.3711744
317.7878254
307.8379433
296.3817369
271.9907119
288.4580302
302.7450744
302.3306875
297.3419586
312.5428183
309.6260997
288.0218034
270.5317425
295.1039945
302.4718704
295.1400922
293.3693648
299.0228982
310.9201764
298.5372959
306.0484297
323.0932816
344.4340982
315.1596283
305.9350614
305.9792621
322.9776652
319.7609753
323.4183614
332.6568174
321.8711539
325.1485333
276.1549033
263.5094517
246.4776535
275.0462414
285.2808839
305.5497358
288.5000874
292.0309143
334.1197083
310.1729908
320.5468688
335.7124691
348.1176658
325.5746574
312.0015535
321.0760104
299.9630369
297.0456538
284.2719726
274.9175982
313.8155383
312.8705517
307.0629215
285.8154029
298.5643886
247.9214524
288.6178318
308.9374995
268.7889126
286.5235076
290.4447836
301.3849381
284.8126354
309.2338038
315.8320567
297.8283959
295.5003589
322.1522354
328.6410112
354.5271181
387.4134148
344.3817923
324.0864838
319.2873574
311.4192508
323.7466454
316.394521
311.5386914
323.5325819
341.2458898
330.622752
323.5263041
325.0057736
308.8964557
332.7101093
297.6683597
303.1112239
313.7164278
322.4570967
302.6206275
310.2263475
317.2669977
308.7535915
294.841388
287.7512389
261.3783978
270.8753292
300.608629
308.2767268
284.7330642
269.1812449
273.4395132
278.6352923
291.1380315
281.6870677
291.3180104
312.439785
301.1537767
285.8901418
287.167129
278.0639643
256.0906275
272.2971011
268.5082173
284.7131345
287.5355901
281.4786634
275.7851231
253.2708307
273.621366
284.085122
279.601282
282.5932256
274.9138413
254.0548394
251.9612292
263.0040728
294.639658
285.6630683
278.2823376
285.0409187
292.3854624
299.4903292
306.1449707
286.3872348
265.5189868
248.9200046
252.711392
290.3814868
261.1855205
251.0386988
261.3050855
286.3820305
301.1835916
282.1630475
252.8928411
253.4357042
252.5456445
277.350786
272.436754
283.0161368
300.0274456
319.9488188
334.3030281
292.1720514
299.9601867
306.200477
305.7441622
282.7667346
296.460605
302.2927894
297.5575963
283.0051958
249.8783175
274.7822675
303.4844822
299.0273085
287.4290979
306.5516083
302.5209171
277.8273375
280.256101
264.4136085
276.1622201
272.5038191
265.9526858
266.073083
265.6004017
303.3083234
291.6343323
290.8105559
282.7283141
290.6399332
302.0925417
300.8085083
328.6020274
321.1453511
300.3436008
279.0840003
295.2470727
289.013806
297.7074336
280.2675109
272.7410748
256.0002044
306.3288209
303.3644761
314.6642161
283.648952
264.6194931
262.635171
264.5253401
258.0767822
267.9550653
283.2677554
286.6626006
323.0143161
321.0284098
314.3715346
326.3411684
302.0958842
302.3279812
330.7661824
316.5741322
310.9895907
270.7204531
274.4032928
295.5044127
350.1332021
374.3708098
368.94972
351.6756755
325.7256081
292.3808627
306.5697706
286.798711
314.1674165
327.9477051
346.1285075
340.5060241
389.0584398
336.9513808
309.6160491
296.5323442
304.1389049
306.9465013
332.9458026
339.870515
321.7562797
335.6833514
315.8654978
307.6870702
314.1923025
298.9241306
289.7845913
299.3973523
283.7142352
279.3312572
305.2033272
269.6850648
271.1890807
275.957959
277.5527006
281.5460015
279.2555909
301.9921917
325.0974046
322.0507978
280.1284052
295.5905757
310.1309912
302.5258734
294.8085907
354.3931245
352.4064933
343.9767863
333.8869124
316.274821
285.031448
275.8389071
280.7297863
288.6992208
280.5023454
283.2147475
288.5636566
275.9549601
320.9444654
312.1225896
264.2676158
290.7659312
281.3760038
269.8191294
263.5506566
289.4765399
272.5481923
317.9820512
331.9429081
328.1446934
291.3036392
274.190873
276.4253224
290.0400612
283.7408971
268.4501073
273.4316493
292.7048809
287.9112764
286.402846
266.3349621
250.8571321
273.5897105
275.0184132
268.5590157
278.313264
267.0626462
275.3652977
261.4104321
286.1708739
289.0731006
303.6571406
294.4681966
276.1604096
291.9085823
307.0131934
293.9861832
310.8574278
280.5683372
277.1412803
284.9675741
304.0644891
296.7549311
298.4530434
292.9717645
297.768472
296.6945818
318.7227559
335.983468
310.3682844
294.7739686
304.3406407
323.7964145
306.2121835
288.2432706
317.6792634
309.1563163
321.9348756
311.6959028
282.3229946
273.2239307
285.2017494
314.5954192
336.1089633
307.4625073
276.6151949
303.4528218
329.2670771
308.6683616
327.5415341
343.0407119
377.6470001
355.5320562
360.1888756
343.8909034
313.6042715
284.2403152
282.55211
286.2747159
298.9793064
306.3129836
298.7097631
306.3025074
282.4821808
311.0616098
324.2721641
301.6330264
300.4097547
287.2962841
306.2262855
329.4766956
302.8294757
300.2438921
297.1070507
306.4807372
343.1887172
360.5210514
341.5704324
350.9843482
313.5820496
345.7387556
299.7600623
271.5418606
282.8387027
271.6536442
277.127599
316.6314441
324.099704
362.9568698
334.995782
324.7407916
348.4293521
290.6318381
287.4845705
301.177026
310.8697438
294.0036174
303.6546924
285.1052129
315.6561649
275.8214439
315.5329891
324.2354547
327.3393096
335.5668822
286.0575222
291.1994534
311.1646667
322.7841054
319.8732309
309.3873883
302.7158807
320.5591912
341.4080568
302.2536738
303.5251397
291.6234539
286.1175244
315.0272124
281.0789821
272.0271401
267.5448439
258.6579066
266.3372164
287.9530564
307.7552761
301.9051466
282.2288909
279.0920448
256.3840002
260.8567256
258.4866641
267.1146958
257.1225108
265.5827878
259.4392097
264.3151129
288.8686823
270.7977572
278.3562209
279.9224025
294.4554717
286.613892
280.9877997
271.9172145
272.3551872
255.0607096
265.9346468
275.217553
275.2384277
272.0014535
267.9214751
275.3837021
292.0809361
290.6228531
285.4802936
285.4471314
274.892846
279.0825594
275.056734
287.4646857
286.4561002
276.518683
277.1310806
256.1239537
269.2549931
293.8785338
291.4971583
278.3357944
284.5510018
307.1169093
333.1444157
352.4866665
346.7776383
331.1540587
334.7220213
329.253282
308.8795696
286.4870185
282.6807577
254.3953224
246.0518426
251.0211971
309.7411061
342.4850868
383.3893686
373.6446986
397.783073
379.6851705
367.1435742
374.9969272
354.6641107
342.0587562
317.0754333
298.6143555
280.1910902
286.0063067
287.6879314
313.3006369
275.7014605
299.553178
319.5052479
315.1142973
326.6533505
302.4623568
313.1634146
304.999049
319.5553425
317.0138088
327.7929722
329.1298901
343.7316132
336.484027
331.6984814
342.8867409
331.063432
313.3021903
325.5447859
285.7525965
302.2907416
272.973483
259.7699627
268.0978301
274.4787308
289.1955167
285.3588469
271.3096659
300.5271382
305.2870043
317.8599274
300.6885715
304.3616139
287.323456
292.8593695
273.3198711
288.8576287
292.491884
265.6369392
258.0826423
257.4086347
271.4270492
301.9832386
310.0172752
334.9766953
353.8106862
365.5754695
345.2911983
329.0833494
327.4652858
297.5860681
302.2415048
304.8471233
317.1636167
292.3173326
297.5155372
309.4380061
307.7817827
315.6410352
297.7753861
271.390637
338.6742553
348.6291873
320.0791662
322.8931556
323.4231435
335.1391321
316.0868852
315.4400193
304.3790679
308.441622
303.188947
287.7519472
305.2754421
301.421286
295.1101568
297.2186984
313.8506573
323.4100158
306.9519315
362.3512522
296.9970725
306.7077584
301.0720236
305.8134197
306.5021489
327.0893559
336.9804887
299.050927
295.5925283
319.3519464
340.7912274
331.7664878
310.0845383
266.1595404
261.4059248
268.7451094
301.7767726
308.3235843
283.3120171
291.3570765
258.2237016
270.2449701
265.3979836
271.8469899
284.976743
267.3545053
275.1361966
270.3423514
276.470989
295.33557
328.1602308
318.0578671
346.6858353
346.4672532
351.0783822
337.2688882
341.0300014
328.6043354
291.8759723
252.2744236
325.3633997
320.026672
334.9828778
296.7370301
262.1659015
259.8101387
272.7353623
283.4944286
297.1905998
292.2974268
287.9488511
298.292112
298.1109386
305.9721086
321.7841482
321.8256487
300.957752
286.6749279
294.0376417
319.77913
334.3946866
357.5478633
354.363448
351.2215422
344.9972625
341.3072676
311.0643972
289.6129495
294.3575761
315.5361821
304.9499772
311.7945603
316.9039856
302.8645218
302.6183088
299.7131441
322.717289
311.7260727
323.1339709
332.0500253
293.436328
298.2754334
287.2723574
297.3531673
321.4132604
295.3377807
309.0419586
306.2519697
290.6519175
281.5191626
280.3617596
264.8918948
291.7274331
334.1976172
328.7318686
317.8254621
303.6202765
280.8266575
278.8129955
292.7409463
294.8187659
308.8731208
316.3761542
300.1576187
277.1943249
297.1321324
299.5475454
298.8045948
298.9766856
317.4291027
279.1455519
292.2128646
252.7533825
268.5038889
304.0555058
319.7323999
291.1876739
285.2342879
266.4190008
295.3859473
330.9651274
297.2353496
285.3807582
292.1568347
312.906906
338.1650551
318.0802475
299.0962466
289.7996819
285.0358901
295.9374348
294.3025194
287.5534928
286.5317362
315.6246998
300.706094
293.2470413
314.3749393
316.9927564
326.011752
307.9706759
299.2101757
315.9687036
314.3639565
306.303296
282.6165657
288.1915965
281.4151833
290.4656657
315.3390768
330.2667248
344.6156408
312.671074
302.7064779
291.1511341
325.34434
314.8664892
332.2092465
285.7070072
301.2198624
335.5676
308.5306251
314.1808987
310.9865961
292.5544043
301.1627583
310.5979668
304.49335
294.354807
276.9599684
283.7231151
324.2198666
332.2444265
333.0937876
321.1735706
300.444851
307.7507923
313.9315503
323.3673568
343.3671531
327.3336131
331.81109
324.6252947
310.8391997
300.6522507
299.6631546
310.2480712
347.6249042
320.5996503
353.6035746
366.3683985
345.7274242
362.2808005
333.8421415
301.5411134
284.807623
302.2249347
297.79825
305.366322
300.6524604
330.4181057
311.9197218
309.6998976
326.3622247
333.5905928
326.0040044
339.7495773
335.5195345
362.1110821
329.4529012
314.1693816
306.2224084
288.7415523
314.8278817
310.9160157
325.9197959
337.4519623
347.5315931
356.6553053
337.3340747
313.6786248
322.0221775
322.6383705
316.611809
325.6134836
332.1034103
315.6765482
292.17303
307.418941
293.5219845
289.1619807
303.1745552
289.2489502
260.9862566
260.1244426
288.9802658
282.7780653
275.5439787
286.4038833
290.9966266
308.3492645
319.0683067
283.669482
330.0868816
324.025516
297.6588707
325.6405739
300.4498213
277.707659
280.0524289
293.4509973
309.7837718
315.529338
331.8622961
321.8833981
309.8265444
321.0314489
290.2955421
291.5995678
283.0497287
336.1762307
335.8621368
316.4004959
328.8897266
324.6174967
314.7306098
315.395225
331.3956736
352.8211907
335.2240476
317.169206
311.8209457
290.8236198
328.611166
320.7585688
293.5877745
303.7795657
320.6604722
335.480439
339.8001619
319.4225518
313.8629659
288.0163764
289.4217643
318.7128051
336.8055155
355.9717725
324.7812083
317.3192908
311.8780913
304.8934218
309.5962959
289.7030481
329.2395078
311.3500043
323.8985635
313.8333266
326.2605149
322.8785165
325.3534178
289.7506709
301.7544656
331.5909702
308.0181891
355.4366051
359.3892556
343.9432377
338.5912847
349.7119215
345.9521557
361.5300727
353.8889885
338.8328984
310.7676475
320.7884436
298.3961073
283.1402188
266.2064725
284.546803
296.5720133
333.6229381
315.3771788
283.0745279
272.8685303
262.6212552
257.4786637
263.6415573
275.0958728
292.8635898
312.6338304
313.9300898
327.1387793
356.477737
348.2793147
325.8514454
300.1989221
285.9517751
302.3879334
327.2352341
337.4709223
300.5881558
287.5515629
267.0192032
267.172284
252.2930121
255.0964361
264.6108508
288.6444167
267.0458936
269.4968273
271.1953714
246.3567843
273.038533
272.703607
292.559302
302.5701369
324.8425444
350.2938398
330.8283821
299.8815646
279.3068415
288.1950667
300.4259276
314.4841292
318.972234
305.5328278
304.7385928
293.5316866
317.4385287
315.3607733
294.0274787
270.9100141
273.5872796
266.4579005
271.6026508
265.7674294
281.431027
299.1893113
293.4317134
291.225582
309.6460817
297.5858125
303.3807874
292.2914307
321.8501434
333.0777538
371.1315679
347.552614
349.9351995
323.9499147
332.2947509
333.6450362
345.9412025
342.6952869
323.3702893
303.8151167
316.757827
305.4390431
283.6902767
290.3942976
297.1445311
291.2598447
282.6080454
297.4682693
321.4431128
289.3046932
258.3209588
273.1564851
299.8047611
308.4074956
299.4444478
305.9620855
285.8408271
295.3725769
296.2286764
299.5180112
287.3211431
281.5594024
276.3241393
297.1780832
281.2637286
292.1697355
297.8058004
298.8867116
304.9938546
325.9093475
349.7646757
361.8290386
349.0592725
340.6129449
335.1502859
325.0680957
315.1089012
314.8980222
314.3855195
264.0561832
271.2017077
261.2947079
294.6464893
276.0633057
293.8096165
321.9116886
319.6336545
316.2216016
314.5506127
306.1435504
319.1749163
293.9618268
297.3588869
293.2241814
301.2647282
285.9356797
290.2960754
280.9723128
287.3972269
283.1258955
269.866388
279.7829105
305.6420742
317.2811571
280.907599
297.1747835
261.2945381
255.7684546
269.5513564
309.7760501
326.4749222
346.8472327
365.3712618
354.0865742
341.6612572
316.7579443
312.8105397
277.4617675
262.9363109
264.1705047
296.1626935
294.5557176
308.4241319
299.5828967
292.3666715
312.2212216
323.0544581
327.5090842
332.2191497
309.4626881
307.0569997
282.8959965
282.7146765
286.360782
276.981575
285.5219209
302.3218859
315.4674022
300.9501385
322.5623488
292.3883533
293.9271479
286.4843554
287.0248884
312.6274331
304.5004737
294.2791236
289.2235175
293.4854622
278.3616086
248.5403405
267.7863528
270.0900553
267.1768987
278.8263449
291.9928187
282.8295081
288.2293359
292.7773088
268.6412521
287.6863569
295.0067965
286.9085342
310.3329703
304.5577182
270.3312234
287.9141751
285.3226029
287.3056445
304.2613645
306.9758421
285.8378336
312.925856
331.2398574
320.5554457
328.2176158
314.54169
315.0863156
319.8615169
313.7258502
318.7984167
322.6149683
298.272546
333.609231
286.0119772
306.7642828
285.234709
305.5116322
315.1334056
298.1632108
295.8122686
289.1708149
278.9175252
286.8687929
300.2934218
279.0921676
289.2384876
292.7548268
304.0778759
275.1252449
303.0931363
283.2715695
294.627672
292.5070455
311.2178767
310.9233351
370.7389221
362.7901539
319.5989199
300.9809209
312.2056486
325.2972549
318.3725884
311.554101
305.0098774
290.6642111
295.8342383
301.9842395
321.0878744
327.0172183
309.9121561
326.6465553
345.6166683
315.4464162
314.8550754
341.331831
358.5448806
323.0827811
314.7666594
296.1024875
289.4657635
276.2445032
284.4164078
323.5021202
304.7823976
328.8076751
344.3524173
334.5348911
351.0413639
325.0645314
335.7227794
304.0406362
296.5156195
312.0094262
334.8100541
361.7057902
358.6033186
342.6554151
346.4513355
341.8474663
324.4293424
334.7619173
324.236574
310.1368652
299.2274566
307.5605931
282.474449
272.8672301
276.9440579
282.0973217
287.2119929
293.8184116
315.9208611
313.1429292
280.0713352
262.6873216
266.7030544
299.585902
281.9528757
278.5662317
291.3177033
300.3321253
295.7199671
296.5160787
284.056361
300.8992816
314.6334459
323.7810101
313.2080701
332.4453705
322.298798
321.764585
331.5420651
318.889463
318.7651313
350.6252851
355.0049366
353.172424
337.6177615
316.0647319
292.5339697
299.7824723
296.7674565
270.0850065
259.39145
254.3286547
291.1905833
310.7698665
332.7938688
363.1129786
366.2968221
322.683182
278.3070066
306.7244002
299.7572577
313.2140033
271.9005544
301.5412782
312.2763104
325.5198796
309.312889
331.1968272
335.4375217
364.2160807
352.3395065
342.2347174
314.6127167
276.3142735
272.8658403
267.780629
272.3902061
302.9825211
273.7875415
297.6707129
261.4041674
282.4775691
310.0977756
318.971829
359.9742096
360.0624613
347.3963003
349.4237852
339.1059313
294.4621386
269.8233225
267.5254765
269.2540913
307.7776421
325.8171218
331.0363232
294.1317432
328.0234979
294.9526678
303.7307174
309.8238212
304.3455759
300.8773971
287.4422232
289.1885019
284.3747051
284.1356476
281.7941782
277.5085564
298.7493274
307.5704025
305.537646
314.4461314
307.1034858
317.5357553
303.0762303
291.7952516
290.7099537
298.8439941
295.9996878
296.592538
281.8204249
266.2936751
261.3613692
274.0433348
260.874804
294.1218486
289.366809
274.0015879
271.1699264
278.3786992
253.9555474
276.5231512
278.7783472
235.5247608
280.1517235
311.2976359
315.5153902
303.4906137
312.5831002
248.5962342
269.9266892
276.355867
259.719325
246.1747509
256.6179888
282.3822662
300.8721798
294.1227721
307.8608126
315.2577898
305.4762342
325.9955536
319.0538554
359.2579629
328.8061719
310.6488923
310.0067461
283.3548219
273.5079565
299.1003083
311.0316911
312.5864466
319.4841429
301.7254975
305.7029974
296.9993496
283.5640365
297.3858433
299.7006723
280.6567354
294.8165943
295.1319518
329.215146
332.0440849
333.6922772
343.2583188
333.1913444
319.0588169
294.9406278
280.2666077
302.3031042
311.793784
321.8949636
311.5009441
314.7467514
264.6005015
276.4202054
275.6297494
263.4984203
284.5147609
295.7612344
312.374559
322.5820474
304.4655472
291.0470935
275.2522856
266.8606241
273.9413113
256.0634312
306.8405057
311.2160358
302.7338304
311.9418142
318.1977014
332.3983923
315.1446822
320.7067214
299.5377183
288.6836065
299.7052337
294.9263566
278.3905492
266.9317065
258.9250018
244.1389407
260.6055323
264.1880942
287.3229531
295.2628676
273.1655497
304.2616589
298.9287016
290.868362
284.4056238
302.1516816
321.3180285
301.1248734
288.342677
289.2811795
265.4995652
278.9500105
276.0284208
284.7816443
275.0273296
300.0881796
283.2665178
292.0903324
304.6238138
288.6536614
294.0124293
300.6688937
273.6403175
304.6664115
316.6455605
310.5577264
321.191379
317.7105974
333.3002883
313.7274215
328.7780833
305.7426546
335.4673805
319.6162445
329.5739727
331.6423823
316.9308091
315.8588645
327.5784986
315.3281993
290.5872811
290.959934
332.6685002
317.1734877
299.0059289
306.9930216
287.4216336
283.3117109
274.9618067