/*--------------------------------*- C++ -*----------------------------------*\
| =========                 |                                                 |
| \\      /  F ield         | OpenFOAM: The Open Source CFD Toolbox           |
|  \\    /   O peration     | Version:  2.4.0-MNF                             |
|   \\  /    A nd           | Web:      www.OpenFOAM.org                      |
|    \\/     M anipulation  |                                                 |
\*---------------------------------------------------------------------------*/
FoamFile
{
    version     2.0;
    format      ascii;
    class       volScalarField;
    location    "0.0009";
    object      translationalT_N2;
}
// * * * * * * * * * * * * * * * * * * * * * * * * * * * * * * * * * * * * * //

dimensions      [0 0 0 1 0 0 0];

internalField   nonuniform List<scalar> 
5120
(
310.896859
287.5901451
276.0410448
268.1188195
289.2464606
292.0753372
294.1791343
298.8018701
296.0484005
302.2695586
295.9331285
295.7829835
305.2972886
308.9298013
309.6404819
297.06026
293.7746323
294.3643895
295.4047788
308.2109095
292.5933687
301.0579507
304.2136453
301.8248094
293.9262439
291.666508
289.6544771
303.8746193
316.8550002
309.3693838
305.0815723
298.167305
295.3491177
292.6737356
292.0520417
296.8535189
291.5725576
298.8884246
305.9799724
305.8171352
307.8451868
302.2078576
298.8588661
297.068936
293.4129711
294.7884682
301.2497537
301.4770212
296.6325401
291.5094119
292.4497775
291.9652003
283.9492587
280.9490731
293.7211687
304.7393423
301.9909873
304.02905
288.0884482
306.7966445
288.087771
304.9920155
313.1918124
298.828376
293.3390562
297.082112
315.6556956
303.6248815
289.8973948
295.9012474
297.5088875
292.4045542
295.87331
304.9504111
297.6374358
300.6695726
299.7527013
296.7164482
302.4339391
286.2648704
312.5364224
310.8620282
289.3243674
299.5747951
295.8469151
303.3742831
302.9373874
314.3799926
312.8138601
294.0687335
300.4564911
296.8007533
296.4354555
290.7978273
293.8412998
297.2923678
315.6533194
320.9534384
305.6431918
309.6719074
286.8223532
282.4939239
296.7363988
306.4116677
299.3195439
304.7938378
305.8617259
316.5111625
319.4264987
319.9509657
300.4283214
294.8981443
288.4191139
297.6379815
293.5276013
292.8856769
286.8114735
275.9976436
288.477164
289.3131123
297.4833976
287.3882334
303.3484786
320.7557483
312.4940058
299.8050431
283.1887762
283.9311328
280.4775558
277.1466875
286.1979074
299.5877641
300.0436918
294.9156603
282.346624
274.0889088
285.3932254
284.3546713
287.1363096
290.9796374
291.9171782
298.4632893
298.5205881
287.1161562
283.9410711
285.1696599
305.5875803
284.7224545
277.9870009
287.087608
287.6250567
291.1597423
289.3943207
291.9437034
292.3553178
309.6903548
297.685066
291.5837681
287.7203744
299.8483272
303.8919105
296.1390172
291.8102796
298.8032316
295.7777012
292.0319909
296.3282376
294.4947647
296.4318239
292.2996881
281.8779867
290.4492417
293.0681584
300.1931591
296.78553
297.8174081
296.3178052
294.8828766
296.9806054
309.6407596
297.9075453
292.2893366
302.515667
306.7105012
293.0398733
292.3823602
293.2496172
296.029303
301.2119941
314.9753666
319.4170046
302.7066892
298.0586619
309.6773141
310.5717222
310.9250999
298.3168102
296.2685951
313.2531461
304.7485978
287.9314253
303.1963344
295.2733974
295.123152
305.7315587
314.1671438
310.3165469
308.7684903
314.5661322
319.0030963
322.3281161
312.0571402
304.1131368
292.265446
308.7132455
291.2780888
293.2303875
305.8213819
306.8769525
310.503005
317.5885696
305.1392626
301.7676376
312.6777466
313.5266665
302.980709
308.3530876
309.078762
291.3114033
303.7830824
305.3092546
314.7018954
325.3621384
301.0067296
308.0110483
301.5623028
293.0717184
299.4026441
298.288059
318.7716102
304.6844023
301.2038478
298.3403951
301.7865296
312.0292254
317.2259441
292.6930251
292.151557
294.6936844
304.5894112
305.7800516
306.2373021
297.7332576
311.2169514
312.2625899
299.8392236
298.7019251
300.0348524
310.4816408
307.6820209
282.7715973
284.0284072
283.1693071
285.1355325
301.1875586
311.5743182
314.8263186
305.6322821
297.3585082
292.6820465
298.49458
284.2386923
300.1667509
300.6605686
300.2377161
301.1529564
281.7698097
277.4289045
289.2742478
292.526498
288.1481275
279.2241627
292.8511863
291.4981663
307.9934217
301.6005139
283.0756704
298.4968426
309.5663534
300.5553786
304.6826715
307.0344272
302.614804
305.8193156
298.7894599
311.9545857
317.8464259
300.7272622
292.3849405
290.5109481
303.2354733
303.2166896
308.303901
299.8982203
290.0227282
301.300274
306.1208402
320.2702207
325.2649587
311.292971
322.2810816
320.4937289
309.6544352
305.8711258
319.9229044
297.7348305
291.4433302
272.504193
288.108298
298.6963552
296.3853088
294.3085005
303.1645411
306.7634496
303.0638627
289.2164077
279.4037822
283.0096309
291.5737703
291.6824396
288.708509
293.9674496
288.4474574
289.4674833
290.9099798
302.8254133
306.9457627
304.0754238
297.167609
303.1437708
304.2934856
324.7141581
323.4805755
317.7418185
321.6781505
314.9903696
309.1218975
304.8905426
303.8375404
324.7217894
316.4122224
304.633486
301.9881567
303.134278
300.8187166
300.7335833
318.3829222
318.5844902
312.6243605
297.9784658
292.7392662
279.9006233
258.6577642
282.3072834
281.4557162
281.8530253
285.7080574
298.0253235
299.9464306
294.8599166
298.7673846
310.7908713
324.8742862
316.5017702
316.5469351
304.6887085
293.1703507
297.5489711
290.375358
297.8165863
298.4714567
306.9103313
311.3726337
313.6069384
307.7810514
306.9860487
296.0021694
291.8556362
308.5947299
310.8645155
312.7759227
303.3865217
306.0342242
322.1405178
317.3894084
310.491786
299.5854747
286.4609914
296.8745971
302.116854
288.6387166
287.4500996
293.6800002
306.0748978
310.7470322
308.8144168
296.1072407
294.3953377
297.0065761
304.8612527
294.2166631
327.0553474
318.4364008
309.1805355
300.2855276
296.3909233
286.4677206
293.6918249
299.4147235
302.1710255
326.2642022
324.9102203
327.8698954
299.5393598
302.1985979
306.1692048
323.2524069
304.974691
284.6380214
276.2371957
288.350587
283.4904005
301.5519808
308.7137992
308.1958207
305.7244315
307.0086957
314.4241937
318.4730396
320.9310955
288.1301182
291.9563965
280.6130877
297.6148817
295.4203649
292.0190609
295.132777
287.8710421
291.2959587
288.0857673
284.4787687
293.7862052
286.9524825
287.3318933
282.2534155
282.5877345
282.6320318
285.9380602
295.6502668
294.8571904
289.1972996
288.5306522
285.6968887
298.0988259
286.8157699
287.4495803
270.8164293
283.152508
289.3680343
295.4508334
286.5119855
284.7520596
286.0410357
292.0060514
294.8984763
287.1732452
296.2061541
310.0283132
299.5515253
290.6590966
281.082747
286.3964103
285.6361628
286.4822807
273.874555
282.6249563
291.9475141
291.2686238
304.9925182
302.9782691
294.7577775
302.5629105
295.3602256
287.6038643
290.5448194
302.8585636
320.4842487
313.5395171
298.6795396
281.3407967
313.935197
301.5759329
304.7181587
303.4391504
309.8500405
294.2250601
277.8927057
287.069082
283.7481782
292.0329887
290.0382754
297.6406978
301.1460385
301.8714698
313.3666393
302.2854879
292.3145677
292.9707139
308.4847795
304.6866368
318.8991684
324.2356359
310.6686798
302.7484726
284.754615
284.6563005
277.1477964
292.8963396
304.8644068
314.0325969
303.5578195
296.2544995
294.6282738
302.6377202
282.4681719
307.6670162
305.3732663
304.8793315
311.9221484
316.6852615
300.6959252
293.4306748
286.2771445
282.1075825
298.9773257
295.6320171
299.3190194
307.8748703
299.9905673
322.6693211
325.0181614
322.7355207
310.2867232
307.325085
303.6279845
306.2094365
294.629508
307.1483994
302.1992712
300.9850793
293.8963089
313.5402883
305.996742
313.4942683
312.9463376
305.0115709
304.4291719
298.5115053
295.3339599
279.9469625
287.4106
281.8300953
298.174653
295.8638599
297.4554243
286.758836
290.4819293
293.3929596
300.6440327
305.910137
289.9348297
296.6243456
292.9259548
309.0029549
291.0224378
286.3325256
284.4730495
291.6222032
300.4999931
295.7578036
279.3209618
281.2143859
279.0438063
280.3514
280.274452
286.3912239
286.7526982
285.932413
265.4747375
272.7825167
298.961252
312.0403774
308.2758341
305.3457141
286.8827783
291.6966739
312.4645053
316.3448218
293.1293787
305.6124406
305.998858
297.936835
299.4943276
304.0522916
315.3780477
291.7580578
296.1463464
301.0727478
301.1901939
293.1149792
304.9136516
300.9369478
305.8310924
316.6077044
317.2518035
302.8263484
282.6872013
285.4218511
306.2655228
306.5748834
299.675014
300.4747603
315.5867901
311.891142
321.3414632
317.4110247
308.3119286
307.3822784
320.1090074
310.8774269
314.7202552
298.0621095
298.5721321
291.8115088
287.1318739
295.7249309
309.9246054
317.2921352
293.5735817
285.8142071
292.6189874
290.3874151
300.5440134
303.7609421
289.4899642
303.9040917
316.2028252
310.2075653
305.3810979
314.3942948
324.0297996
320.453176
318.7833483
324.4946465
334.8606617
341.9168319
332.6415336
315.4596891
303.1468238
300.227404
291.8262166
292.2774572
287.7206229
304.5275474
321.6615691
331.9067971
330.7081349
338.3165347
338.9419198
330.9282131
296.3334671
297.2011022
291.8378903
292.1605509
293.1431833
288.51666
295.0184055
297.0356053
288.7380191
291.7180716
291.8694244
305.481173
295.8116923
300.300968
318.4135269
324.9586739
318.4366996
313.4395611
302.1243727
285.8996106
303.2491348
319.0908882
325.055976
304.2823712
300.0294268
312.0156832
304.9279933
309.2202548
304.7472871
311.0013912
292.760593
293.8043836
296.7553428
296.8699379
296.7827052
285.9877359
292.0443868
290.8433032
274.0787739
291.3055798
293.551818
285.3037078
280.6472456
291.6999707
297.4572627
318.9999715
314.398715
297.6313597
318.9874857
323.5949835
315.3484407
304.3859007
307.1037653
305.9480167
303.1974319
308.0495578
310.98043
306.2174081
301.7024712
291.1418296
314.7195188
306.022232
297.2839658
305.3630634
307.2141321
302.6468601
295.4413052
298.7901803
292.7094628
291.2003858
293.1622709
321.6098142
294.9916408
289.8482234
285.7661173
291.3140337
293.2368726
300.7210173
301.8507094
311.9240404
262.4880375
272.4373884
283.4527984
297.0184503
311.9953254
306.2671775
293.875206
284.2210576
296.7436158
302.2565031
294.6401197
279.7551956
278.4628541
285.0939893
278.6083597
277.9361491
277.9948191
276.2020635
277.1243656
266.7191621
316.9449591
298.62168
285.8262911
291.3342656
304.2839544
291.2657392
284.5734326
303.4213963
293.1035315
276.1674605
269.1885529
277.1454628
274.2667273
292.2650495
305.5651838
304.588633
295.4655901
286.0837815
292.4367202
300.185833
294.3065116
307.2131553
290.1393052
275.2857729
279.3883674
297.9531672
290.7228579
288.4831442
301.1722672
318.653676
316.1450734
302.8394078
302.1045838
307.787345
297.0984273
291.6421085
295.5521566
298.9972877
299.5345727
297.0394378
301.6025536
292.9215725
303.3157921
314.7813315
311.0561979
297.8135777
301.2787375
312.9541339
291.3516785
275.418058
286.9976748
290.1890121
297.4299716
305.8644631
295.0858971
301.643417
298.4744302
310.8944116
302.416353
295.3951874
307.9717539
305.7516282
301.7255395
290.2506608
294.3885969
305.3819478
304.2767709
304.9503169
309.7455335
297.4869061
301.543844
309.234427
318.0954929
322.4468548
310.3341721
294.0395927
317.8917489
315.2362178
304.7465746
314.9102047
313.4170716
307.8236543
299.3110965
298.5803769
295.8068055
299.1370338
297.1736449
315.5768721
319.7125968
304.2749274
313.19629
327.3668545
332.6241661
322.7690275
306.6242801
301.4098357
313.5208059
296.8425874
317.1551416
309.1857656
302.5653098
304.3165078
315.2943923
307.4628371
312.0830342
308.9085442
307.931636
300.1827168
289.1719884
299.1543372
296.4444834
281.6015609
296.3989379
289.2067436
286.6632009
295.9070714
293.325907
283.7807151
278.5933763
289.6138211
284.8969593
288.0501256
295.5867961
303.5433594
302.28362
303.4927036
297.0472595
296.0098392
308.542313
316.3618715
310.9054845
286.9513489
274.9962275
285.2350372
292.0339035
299.6404996
307.7122871
286.9612109
303.8782624
298.8574274
291.6963022
280.2585293
268.8119558
275.439344
286.5505986
297.8169042
305.2762494
308.2225923
314.1419202
297.6032436
299.9766565
301.6051639
315.3513841
308.1175572
303.950561
302.2903613
289.706525
291.8152122
292.9526206
290.2675623
299.6343293
298.8739956
298.3313703
292.4470878
288.341532
302.2441502
297.31482
295.5247359
302.0481535
306.4868303
298.1706317
302.8051459
300.8590513
308.1440924
291.1106407
297.4373943
299.9968691
296.7464566
296.0883529
311.7270768
305.6123809
288.2035668
285.2486981
291.8926302
295.2300262
295.3007919
323.489585
300.3482388
299.1275014
309.1346649
307.5082849
290.9338668
296.060751
290.5407731
288.8383676
286.4333291
291.8379624
301.1295981
311.2303175
319.3372925
307.4776817
316.1094554
309.592873
304.6107854
297.8006251
300.4889335
307.8943649
306.6964604
311.5896204
310.6707956
291.1318499
295.9762972
298.7631046
312.1580151
301.0500804
294.3754644
293.112251
302.9103605
298.4273083
291.411864
300.8317232
310.941975
318.3282214
308.7554921
312.6073943
308.9551434
306.8175708
302.2981742
300.0105834
307.0309393
315.6787658
318.8321765
315.7978629
331.0853183
321.2614071
304.9369739
313.9756612
314.0633275
307.2455411
293.4660395
315.1170945
310.5464794
304.3582134
302.2641715
306.8250655
296.6865228
295.6983337
311.9397335
324.1177165
304.25766
310.4516519
326.5522079
312.2955488
302.1450592
296.532637
281.584627
273.5315036
288.3301481
309.0382592
316.5063288
292.6800275
297.986055
289.3146906
286.5848961
281.2506413
288.5952494
310.6024077
321.6475846
302.1351625
302.975533
291.8291434
280.718125
285.1317481
284.1834545
279.0575295
277.0297664
298.3203721
292.1063532
288.0347609
289.5548713
285.4938341
293.7185208
299.0421377
297.2362055
298.1972043
297.030849
295.394835
311.7215635
310.3319638
286.1612345
269.6218512
280.1477943
283.3382363
274.2323681
282.8932359
275.1233855
275.3958001
269.8641562
274.4397258
279.513202
303.4408009
303.4950567
295.1478171
325.4790872
297.4556779
294.4343132
314.5421081
321.7063155
296.2340544
311.871924
303.974328
284.8175278
286.3898177
298.3337218
302.1063118
301.747799
300.5370561
297.5206397
288.4191755
297.2934665
309.3608956
308.5070633
312.8859603
309.2684188
313.4274732
325.3608501
317.5260993
315.3411234
312.5515702
303.6803686
302.4840121
305.7633619
299.7651551
314.0694288
299.0047152
296.1775297
295.2919313
297.8187397
299.6766956
304.559351
307.2720184
312.1921793
317.7964302
324.6032011
317.015029
315.3116497
315.8973301
322.6281698
329.9098565
317.0111834
303.4699148
308.1682793
304.1770091
305.3982907
297.6790152
289.2782537
292.816153
314.9658122
314.8026564
313.83098
292.524613
285.53472
297.1285582
291.2923709
297.4087299
273.6710988
291.0240298
291.7817556
283.1265232
309.0112738
305.6654736
303.8873368
293.1953164
293.0840278
309.4496215
323.4253273
322.0631857
300.4066121
292.5504653
297.5871178
301.3572432
288.1852014
294.6681219
303.6050851
304.4267404
312.1757243
320.4597255
307.0407203
297.3156008
296.0230202
297.8551951
310.9519002
309.7888734
304.8533174
311.5650308
311.9395967
306.5385308
304.0389375
297.4320976
289.9102191
289.002704
298.0017009
303.3514261
293.0783939
288.2062949
287.985079
292.077598
287.264437
296.1506931
304.3372368
314.0266117
289.8751594
288.9251708
297.3819264
299.3803751
321.4381299
320.6618148
313.5807841
303.6202103
285.9940045
287.3784316
280.5169717
281.0412755
297.8202718
304.0629835
294.4900987
294.3061007
307.4775554
302.9645945
302.7832237
306.7984005
313.4059308
291.157609
294.1744025
301.4069183
288.647101
278.3144045
292.2074557
297.9035975
306.7592874
295.168868
301.442385
298.2766766
284.2840966
291.9357302
288.2707083
291.8916935
298.8612611
284.9631671
289.0908746
300.4667736
314.4926493
321.0188775
300.5067863
290.4348468
279.8110322
287.0989061
290.0923982
288.4356078
293.5727034
285.0708617
291.3071245
302.3755883
292.867992
305.2221498
285.3873128
273.2488535
285.0575651
286.1322392
305.9623896
294.5862565
281.2250789
281.229309
290.1566841
283.8057071
284.4503623
303.4435607
296.9976039
297.9128284
297.9750611
301.04483
320.4098874
300.2896753
290.3263548
297.7605814
284.310424
280.264856
279.8228786
281.2759213
276.5102405
290.001033
285.8849534
281.1470891
287.2808954
286.4946559
289.3056457
280.9869674
293.4465034
301.1342786
294.2740519
296.5659494
297.9629859
302.156768
298.2046267
294.6662111
293.5987079
305.2630748
290.4960457
304.0099712
305.2446903
304.0301925
299.6613003
291.0136518
281.7919033
291.8560554
285.2422858
278.0904881
277.2903198
301.2349795
306.2478542
303.1673497
298.8295497
307.4858164
303.2295355
306.7830092
297.8853808
305.6309333
301.8238904
290.1687561
285.8444596
298.6941586
306.8703609
312.6273198
304.2760238
315.7794946
313.5303228
324.0876472
321.2590677
306.8084216
299.9304711
307.7531253
301.0604227
309.8534939
311.2240339
301.4890301
304.3184564
311.2992381
309.5311441
316.886917
310.6183837
319.0972616
307.4899921
314.2682822
306.3080697
307.1614882
317.0244616
301.119264
296.9021405
292.8818344
304.030906
298.7146539
318.0189004
315.5881021
317.93459
297.9550486
290.3656036
284.648128
284.0353925
295.6055634
319.4297119
298.4178625
301.9320649
305.9691862
294.06564
290.2020697
292.1994792
302.016628
301.0140193
305.8090135
312.1858388
302.2634373
302.5478974
310.8317786
308.3898486
317.3306433
308.1345861
289.8619852
285.7598222
295.0288894
300.5495794
311.4612561
307.354179
285.6743096
287.6877319
301.3712436
286.6049258
288.2310524
303.8871814
307.9434919
303.6028993
301.9410544
306.63518
295.3509649
301.5190137
307.2187875
312.3039401
319.9184621
306.2430572
304.1622924
314.6236695
310.0035063
301.2682786
299.9804617
288.8017961
299.9062714
297.0720581
306.8274713
287.8477939
287.7497052
286.7465272
299.9320771
295.751872
292.9834421
287.2063683
309.9315399
311.28704
316.1323277
327.4168452
318.0798282
294.202954
294.8625345
289.2750834
284.9492986
288.5543538
289.9484358
296.5289776
288.5016808
315.0123899
333.2496459
301.6501354
315.80609
318.2104976
309.1963059
316.4340614
299.5827029
302.1100066
287.5518837
280.5877699
293.6083043
302.6496513
301.5289766
316.0871718
310.8810044
295.2249637
292.2523819
287.3102065
292.9216756
301.0613695
289.2434084
309.4884328
319.1849529
322.4889366
308.4806037
294.6080816
301.3009721
296.3619718
296.3942901
313.9385755
307.1278992
306.0084084
314.985099
302.4449634
290.8958665
294.6657822
287.2828063
292.0990781
299.0826779
300.9004444
312.5950258
312.2006137
284.488636
297.5246709
293.6136195
297.394767
299.2253533
305.21957
301.8998889
299.304978
307.9662451
292.144725
292.517287
310.7425736
298.6198922
292.9269774
302.0762157
292.9772346
291.219378
297.2067127
303.1730416
297.2002175
312.6012264
307.035534
311.3817563
320.3793859
309.0776281
320.5851239
299.9552274
289.9576395
292.6575714
306.9673929
317.372797
302.2703141
304.4707844
296.0322587
299.047118
305.4728717
297.7263464
294.8605655
297.6757894
308.5025025
285.253716
302.2334491
292.1506223
293.1047701
308.3217949
305.1460476
308.3587918
315.7330706
310.4440842
299.4930646
289.8607007
298.2269956
300.437984
300.4494791
298.7640329
297.2353543
302.4303347
293.0123763
287.5033682
287.2452792
278.4392182
266.4986829
258.9364113
259.3997648
257.6348987
283.5227875
287.9066996
302.5559887
279.0780743
290.2221111
294.1930272
295.5872745
284.4117547
290.5419928
284.2150582
301.4698806
291.2658281
283.6708327
283.1066917
271.7104326
279.6867376
287.2406523
281.5470252
289.9545748
307.3387829
297.7829088
291.3475823
285.7410593
291.79098
292.0540642
287.6213267
286.4537896
286.2120658
289.7031088
290.3990178
293.8893179
292.7386735
290.0066144
279.0312137
283.7734492
306.3768591
293.1444429
308.1926561
316.1434934
306.537096
301.5897031
299.9402056
294.5772612
294.1360586
301.964966
307.3969411
307.7613397
314.2977981
315.7928869
312.9719185
308.2599695
306.1324703
309.8109982
300.6670795
294.5803959
296.0979983
278.3344928
279.069226
280.3237928
298.5919754
311.9044882
299.5868926
311.3907805
309.1174102
306.0774207
297.8951313
302.0094963
301.8989674
304.7580526
314.3258495
320.3522815
307.9735921
285.3617458
285.8145252
304.8602823
299.0330165
286.1130439
301.5689686
299.6192511
300.1447076
315.5780284
312.9128461
301.7553294
291.6612875
274.8535933
285.9509087
298.3962687
292.9257968
286.1255599
294.9166784
294.6035604
300.1292218
298.8166692
282.2600861
297.1110793
315.708194
323.3142996
320.2382693
313.4995496
316.9778118
312.4828722
297.4603684
272.4547193
282.7248248
298.0456218
294.8378545
302.8350243
300.2530231
300.4134609
306.9614064
309.2431949
301.2250518
308.7221688
300.1065722
304.7355198
310.7373482
304.0058489
297.1790015
299.9134516
305.6746236
311.1667555
310.0015278
337.8682474
330.0998139
316.8065409
310.5953546
308.7391135
300.429148
312.9029123
303.7530086
296.1186569
290.0435798
287.4904734
295.3939584
288.9212396
285.8386131
295.1831248
302.9261449
292.5927399
299.7789709
295.9491661
310.590648
316.1567952
312.2476604
311.0126028
330.1818741
313.5838736
289.1737558
285.5293856
290.8361997
301.230545
299.6348737
300.8688528
306.1569475
308.1114035
296.6705941
303.1158624
305.1365696
315.2137987
311.8517524
320.6859182
332.8817797
316.4475458
302.1548015
286.5467618
272.2317544
285.2891033
298.7276963
307.613078
295.6959572
279.3536522
281.1737834
274.610084
285.0744835
296.7400126
292.9679967
307.7925063
294.8052541
291.2519267
297.3761243
304.4734872
309.1101633
315.2237861
311.1223182
295.0731641
302.698225
294.420625
300.7273082
310.9125055
312.52253
320.0861196
314.5020295
310.7276987
292.0708887
280.8518975
298.9904932
307.9003158
319.4960674
334.8382597
315.8887955
307.9368358
291.5044714
291.1008102
300.9239999
316.3139523
311.4663444
321.5403967
314.6775411
306.9730843
305.6125806
314.3885428
318.0680749
311.8714345
292.1286573
287.9209327
297.7471511
288.2083932
291.9214875
291.6556261
305.6318928
309.8567701
311.0745192
304.1291522
300.9659158
307.8787724
314.2526344
291.7184638
304.1213061
300.0117889
294.5810069
295.1418964
303.6452709
301.1315011
299.4190848
304.5833036
288.0183244
290.7530631
288.5612859
278.7059296
279.2177975
286.8106693
301.7518228
303.4805065
299.5922515
296.7331731
300.7709991
322.6931226
320.1821214
315.0166822
301.440898
284.8476709
291.4892359
313.4460828
317.345869
316.3066546
303.3778424
312.171283
313.7057707
303.8297005
305.2910943
306.6842069
315.2251195
304.8351241
309.9980911
312.6871791
311.4689313
288.9133213
300.1786165
301.3314291
309.2737574
301.6459503
286.321719
290.3514569
305.2866324
294.2771658
291.5098757
305.404124
296.7236265
296.7224335
292.1505702
279.3125141
285.5062094
285.0850168
296.5922861
301.2219123
290.6053759
296.6754554
285.7440336
289.6691957
290.3576875
294.4550252
312.1494775
297.4456236
290.5400178
295.153114
269.1001542
277.7663053
298.903737
288.6684532
298.8773589
291.0347596
287.0887171
292.8307938
292.7453508
303.3810551
293.9532396
283.1385287
294.9907699
315.2957277
313.0280641
311.3967172
303.729394
298.6040153
293.3734011
277.3678365
294.6122946
295.8976752
291.6924116
305.3784122
314.1724426
300.88941
307.9686926
296.4832177
305.3741592
295.9430127
308.7981143
303.7773143
309.1459189
316.5328931
303.3186742
297.3420131
319.0594923
310.2403089
313.6335932
299.1113071
312.327595
309.1217004
316.1130299
311.2722994
302.1352855
302.2419078
298.0344063
304.6101153
318.5293852
311.4413527
294.2031011
294.9922533
285.7761496
286.9992281
301.7156302
296.9626993
305.4000696
316.7874151
316.4330683
318.500754
318.4946538
314.5975298
300.9766307
299.2488714
300.5093345
298.3617962
301.7371214
292.5139649
290.0164482
298.6693376
295.9741636
294.6414868
295.1812604
282.5801232
278.6825697
290.0183186
296.2781996
306.7951147
283.8855209
288.1979608
292.8658903
303.488354
302.0241505
289.8786422
291.8510123
276.1216891
291.6807512
294.0423754
294.0883617
286.615056
286.5266218
285.5709802
282.0957117
290.9108664
299.6569502
288.0924329
290.8242311
286.5067718
308.6717046
302.1794666
291.7666234
285.3614534
296.2743138
303.692386
301.3395998
320.5586824
311.665446
306.9646998
303.5894935
294.9239584
290.5245
290.3733178
288.2774515
296.9407475
292.890939
291.7380155
304.3667791
312.8606778
301.0537228
300.8655759
279.1751877
301.7818916
297.7888009
309.5109979
306.1045069
282.9636952
278.3777708
300.1715136
294.2885566
285.0461486
293.2434885
291.2472924
294.3803008
301.1635172
293.5281882
290.5883969
287.2200263
287.3314073
286.6767889
280.4186834
312.3024014
298.9648528
291.1042239
291.3952658
280.0995551
297.0808873
289.6084401
288.9017529
283.5308219
290.4524954
299.1343494
295.6430707
299.3918216
297.0707735
303.4448872
302.9769282
296.1741983
294.0609152
313.2642491
322.9023958
297.7781776
302.6835535
304.4539613
304.5444333
295.5838681
295.6557596
281.3080157
287.1418748
292.9584756
296.7244647
285.3217225
278.0164157
273.3209916
279.3667202
285.7537933
297.5150637
309.0908159
307.5774185
305.9985962
295.1041898
314.801803
298.0184333
277.8869023
274.5344238
275.5007907
273.630038
268.4683801
276.8917005
280.6816902
292.6906126
305.3081925
303.7734073
301.8605713
295.4396597
287.0026211
287.6461103
290.8904795
291.7958611
292.5484847
302.4851761
292.6717475
285.4455842
285.0291648
288.9908251
296.1641898
300.4792105
306.1861191
304.9554189
300.7031694
304.7677094
304.9345328
290.6376669
283.1352828
279.4131877
292.6439859
290.4429858
299.9505279
298.990488
292.2499364
291.1097748
293.0241112
288.9013202
293.7746276
293.5312262
302.122605
303.0699253
302.115368
296.5455631
306.2983983
305.0633211
310.1629545
301.6350785
307.5467465
329.5775506
321.1582003
320.0673527
301.7947606
288.539053
308.9900364
295.1994189
309.7976737
308.006065
300.8547185
284.2018615
288.0681895
298.3831228
298.7823953
297.4569668
274.1766585
273.8730072
290.0446314
305.1807869
308.6839722
289.9314143
296.7271501
304.5219234
311.2308054
318.9484835
325.2519992
309.296596
292.0596586
279.9194218
295.7517123
301.6663435
301.1316495
286.6264231
290.9374033
294.4772513
293.3160435
290.0035041
290.8798867
294.7535913
290.9549449
294.1998335
303.8793179
319.9990396
310.3189082
306.0124929
300.350325
308.3813235
285.6125306
290.8218976
275.8370506
288.79007
285.5109556
289.1601941
290.7094542
289.9491997
296.0035314
306.0314268
301.7576976
307.8877232
297.1287881
281.5158197
270.8724345
271.3328028
265.5736512
267.8189318
279.4926562
289.9756535
305.2140897
292.914016
301.364507
301.4705744
320.6883729
310.8425392
321.9743143
321.8884335
307.9320991
304.6905902
296.2800795
288.8643913
293.8364652
303.737394
309.2449129
304.3316659
301.6889508
314.6538681
320.8619951
311.0852984
307.5474542
294.3320926
302.12392
309.1586126
302.3215494
303.6059476
307.7987666
313.6683345
321.7787544
309.9060717
325.7956974
312.3945192
300.8819328
288.335282
303.9688378
306.2585148
288.6122111
273.3410616
274.7596765
271.7095656
305.978601
307.5358313
304.0549063
286.1464603
303.0323389
305.2882046
307.2579276
311.8264529
305.1695253
303.6421901
311.5600201
311.3570869
318.6952027
326.7061232
300.0622176
284.4398838
288.2818449
284.3203196
287.3095467
296.9795643
318.573879
307.1278212
299.4421713
291.3720309
292.707725
297.9010219
315.076067
312.9239703
311.7824804
306.7545573
302.1993732
301.7082978
292.4382138
300.6703654
312.1058374
313.6355325
301.5589553
293.7284003
298.0760655
303.7656779
312.5173119
307.2142524
302.4633858
301.4570649
289.3457239
281.8746225
284.7008078
298.228432
307.5416282
289.8175697
303.0317503
299.6074892
306.0197075
319.7295174
307.0091381
286.2170617
308.0742988
316.3944869
318.1925971
314.5332235
298.7367124
297.6666034
291.6475085
289.7704093
290.0424935
307.8112228
307.1576067
298.3930046
321.8560677
327.08866
327.0904403
321.0575115
304.204715
315.8183471
311.54359
314.5727872
303.2499378
295.5700251
310.4419527
306.3329389
297.6524521
310.9164764
317.2031351
315.6875475
307.0244269
292.7273928
290.0030529
303.7842076
297.2828915
303.5316083
304.2750893
304.2144596
303.4934932
295.4685183
308.59473
327.6448538
322.9073239
305.2204103
307.953895
296.4228809
304.3803302
291.5286373
293.4528867
285.2480227
296.3489062
301.8283909
291.6553394
286.0317904
295.2472751
294.483942
302.6613015
290.9961538
295.3386214
319.4791969
323.1274355
303.0220194
298.6894993
314.5440925
323.2120881
311.9210843
296.8424358
297.0230005
315.7701661
315.703009
317.0178994
297.2174525
289.7539891
287.4393962
291.0284687
290.098775
296.8989966
293.7016175
307.3691882
312.155643
317.2187145
326.0224645
324.7719581
320.0192286
308.753424
290.2939323
300.9786627
305.1995156
312.4951292
323.2245906
301.6220355
289.8897148
286.0391149
279.1339621
276.5153476
282.5983873
297.6652759
304.4410467
299.5862968
304.2063748
298.9165683
295.5220583
307.2217956
288.8511702
301.9016741
301.9510717
285.2703944
283.3631738
295.1464018
273.5880409
285.9338685
292.7118728
295.3976226
287.2941554
287.1185336
274.4457463
272.9193128
277.204424
279.3275014
288.8784801
296.9417607
298.4546593
301.8654702
302.2747827
303.1252352
290.4504454
301.6885294
294.328101
287.6671077
288.9895565
280.383389
282.1943878
264.3374182
267.797869
273.4211705
274.4517039
264.6391762
274.6755382
270.4764781
295.1525133
305.9649613
306.7265568
297.64255
300.9362764
296.0223426
297.5946294
306.1608845
317.4235273
308.1683228
310.6277057
288.7651779
294.3420802
299.570708
292.1671443
305.0697978
296.7404137
290.4739087
293.4844919
296.7354851
298.0598379
293.9815214
291.941936
308.2894038
297.0381573
288.0536132
282.3650547
317.549915
301.3125922
291.2887903
288.4415176
299.9508876
304.5267087
297.4181953
292.4653418
295.6170833
299.8082437
303.4955669
303.1519719
304.6289887
286.6066159
301.7079483
297.2831083
288.9509693
301.3242495
293.5605565
304.2101799
290.2771651
294.4113097
298.1763972
286.7119169
287.2501726
290.7708543
297.7429602
289.8357003
287.2969916
275.9447919
273.6043986
279.280381
291.526586
311.0574501
307.2414918
299.3747964
311.2752358
315.7254476
306.7777548
299.6439591
298.8852185
309.1703666
311.4356427
302.4554735
305.8574762
298.7490424
308.8211051
290.0357602
296.1059712
301.3461723
309.1849445
302.0784362
306.3453049
297.9024341
294.7115026
306.0291704
299.4764014
291.123748
282.0912351
286.295529
308.8819851
313.2983552
316.1948946
301.155082
301.2057679
312.3500468
301.5905863
304.8263847
321.9519032