/*--------------------------------*- C++ -*----------------------------------*\
| =========                 |                                                 |
| \\      /  F ield         | OpenFOAM: The Open Source CFD Toolbox           |
|  \\    /   O peration     | Version:  2.4.0-MNF                             |
|   \\  /    A nd           | Web:      www.OpenFOAM.org                      |
|    \\/     M anipulation  |                                                 |
\*---------------------------------------------------------------------------*/
FoamFile
{
    version     2.0;
    format      ascii;
    class       volScalarField;
    location    "0.0009";
    object      translationalT_mixture;
}
// * * * * * * * * * * * * * * * * * * * * * * * * * * * * * * * * * * * * * //

dimensions      [0 0 0 1 0 0 0];

internalField   nonuniform List<scalar> 
5120
(
312.6844574
297.079619
285.0682406
284.3366168
295.8575957
293.8647078
294.4755217
295.6028193
286.7344421
288.5059354
291.4965516
297.5857165
299.84059
300.7723043
298.1837666
293.143753
291.0134092
289.2426061
292.3986937
307.0900604
287.850893
294.3841983
297.5825947
298.1839049
292.7226002
285.4443348
282.3352168
293.53729
307.1521796
299.6307412
300.410584
292.8665035
298.1929262
291.1564388
288.0239901
300.65048
291.7176512
298.5112941
310.6661319
301.3906814
313.6338629
306.7691318
299.6977794
294.9686847
287.92809
295.3668306
302.802806
302.1805743
298.8627894
298.5350837
295.4506445
298.4960488
289.7885248
282.8179247
294.106892
304.9102671
298.0390684
296.9718017
286.9132685
300.7620926
288.8297865
305.6829356
320.0760744
307.3978252
300.6522873
303.8911212
315.2638664
306.5971807
300.76974
307.2529474
308.3152665
300.5237196
304.7669397
314.8773758
303.755834
304.5113465
301.5383356
294.5573105
298.568225
289.6133888
307.3673206
301.8688063
278.5542092
291.3809752
284.421047
299.3601335
302.5885313
315.7949528
318.2964948
299.2841585
301.1625715
298.1850294
290.5577766
284.0431799
279.054872
291.8635217
309.9558577
324.6736043
308.9778736
310.5718343
284.7706062
277.6953594
294.0516058
301.6629595
298.6521961
302.5756362
298.6896977
305.7665729
312.5777919
319.663213
305.7210033
295.1219971
289.8496864
294.391877
288.0045398
293.6160057
288.3067144
281.2440242
290.5833277
287.9379412
304.9726319
294.5692571
308.9129298
315.2631295
306.3177971
295.4827828
286.2563764
286.7422755
285.8222422
281.9812792
292.4415169
303.9229452
301.5979948
295.5927019
281.190338
272.1257434
287.4519909
285.8695873
288.9406137
301.3397112
289.7496087
299.8109625
297.4368648
292.5978443
298.2197759
296.322477
304.04943
282.0783227
278.8130815
290.0960612
288.8147026
287.0523804
291.3615893
292.0370443
294.0105753
309.6352671
302.1131317
299.7086811
297.6672304
292.3596975
310.3767454
299.3188231
294.8090842
294.8257303
292.152138
293.8200383
301.6244131
297.8746445
295.5375224
292.6024494
287.9244253
299.5128451
302.594679
309.3577815
303.1865961
299.5989004
301.2648931
301.5492775
299.1980198
310.0369766
301.7737551
293.9065011
303.2845696
300.7190875
288.3593116
288.4968763
284.6196999
287.0330612
295.5022711
305.7268601
308.8851737
305.550375
302.2194725
305.8007811
302.8382488
305.0909583
296.9599269
295.3736114
304.4802874
300.8831002
293.3400818
307.2872606
298.0313398
295.2274796
302.9950744
312.7531246
313.3087622
308.6228827
311.2158364
319.4907449
318.0289878
306.0751839
296.8875981
289.0692109
305.7398209
295.4061665
291.9210251
300.035045
303.3545711
306.8903509
312.1585873
302.1090625
299.6035023
308.2241463
314.1020853
303.731394
306.2974431
309.4281531
298.3924388
304.7414948
299.9491255
307.7074844
316.504239
299.740137
312.2401689
310.1958002
299.6874395
310.6747611
303.1760934
309.9133922
299.5514056
300.7921746
304.1197461
304.0349422
313.2201355
318.9150469
299.1133329
295.7335294
295.3767547
300.3741078
299.5043722
294.2266681
287.2565244
298.4967813
302.4909615
298.9738479
297.696391
295.9740709
306.2943196
299.8930366
284.0939938
288.0098674
292.819347
296.0986689
308.1184957
313.8664851
307.9051363
297.7024116
286.3506467
283.95707
294.8285722
279.8889592
289.4127101
297.0059691
297.2106817
299.8318499
289.9217708
288.3650683
293.4575749
293.8250551
295.2233539
283.666603
291.7155165
292.3189543
302.2289745
293.1268923
279.7832187
299.3825412
307.8887186
305.9378749
307.3895244
310.0390604
309.8628708
307.4383408
298.891177
315.5028435
322.3611591
301.1377979
292.7903205
300.5696434
295.8199039
295.7144209
305.5850495
308.2280776
302.6451266
309.8014435
304.2427979
314.0108626
319.3021414
312.528768
320.0567725
316.1682472
307.6867757
310.4155148
319.7623272
298.6142164
285.961515
273.7159295
285.3752016
291.1542923
304.9131537
302.701315
300.7746941
295.4173833
291.5410919
282.5934626
275.2858429
276.8047265
288.0745794
290.9718401
291.1266395
292.4671475
291.9419395
296.6629373
294.686797
304.7308436
306.9179881
304.625121
293.0565756
304.4243594
298.8001556
317.8789417
320.0001498
309.95586
306.7391514
303.5833505
299.9233351
297.1197175
298.6060134
311.121
305.1507736
296.7084325
296.7688295
299.4306405
302.1457258
304.9554588
323.9151256
321.1272924
312.2927484
296.3018679
294.4763231
281.6488497
265.0865337
289.185166
293.2836101
288.6771809
282.9455009
294.8412558
296.278804
299.4961711
305.617276
309.543583
321.5257139
316.6342565
317.797098
308.0596336
301.8962762
302.118365
297.3303327
302.1583924
296.9839751
301.6777217
305.1793598
313.1404808
301.7031203
301.3822853
303.3062348
300.3168611
304.5505768
303.9624389
307.5179215
301.5799814
305.1750052
317.1818092
315.1101716
317.2109962
302.4456322
290.8054977
303.0530662
302.9244127
286.2488877
288.7726122
294.7854306
304.9380672
307.0996176
300.9057636
287.4512159
283.4703534
287.2495334
297.8728151
288.8802771
317.6894968
310.0577054
298.5266164
299.5898606
293.8220439
293.9501617
293.2258024
297.4105441
297.7358557
324.0963505
324.1585026
325.241715
303.1298782
305.566484
307.039114
317.7901454
305.5861501
285.1603882
280.0904088
287.3802156
288.5803491
308.8915801
313.8339989
309.8206029
304.5425059
301.1247975
311.4737771
316.4583049
319.2514223
294.898047
301.7000266
292.192883
302.3554991
289.8672764
289.8519634
299.7287826
294.8518657
297.7685801
291.0369509
291.4985927
295.2630923
286.8587349
292.1683718
288.0600517
297.9849221
294.6956181
293.4325215
300.2307565
299.3003441
288.8745506
283.5198074
283.7515537
299.874231
298.6909661
293.941958
279.6262187
290.2943042
292.9961572
301.381642
294.0596551
293.3737111
291.8554405
289.8294032
290.832183
283.5476774
295.8419957
304.9860325
297.9366714
290.390358
282.8021695
290.1906087
292.7224784
288.67025
274.5591716
283.148314
286.7167473
297.1549535
310.0336563
310.0217058
308.8265074
302.7434086
299.7709575
298.9490266
292.5228853
301.8085934
317.2153509
313.3346091
308.3055071
292.6633638
306.3911515
295.172588
296.6281669
301.5489699
304.9697698
298.0369119
285.5957
291.9998047
290.0170789
302.3892395
296.7223827
304.9957291
304.5187052
308.9082081
316.5154181
310.0862636
306.6070074
308.2205106
316.9632099
301.3727684
314.1773001
315.7136108
305.2057051
304.1465563
291.3009967
289.7597173
288.081432
294.7813098
297.4411551
304.7365624
299.2171328
294.7372072
302.3538789
306.6682593
281.6273046
299.1082149
296.9969196
300.8076973
308.5598438
311.7951169
297.7476783
291.5880628
276.6941231
276.1743351
289.6475854
288.6230692
294.3342427
300.4627048
303.2576588
322.2318757
315.4801476
316.4637701
308.4487226
306.9507816
304.1642049
310.6434322
297.2917276
301.9593428
298.6894756
299.4700321
299.6281509
304.2637422
304.0061903
311.1897103
308.0647997
302.5540201
302.2436249
295.5234562
291.5061124
282.8443429
300.6848475
284.9424801
290.5917867
288.4925538
286.2814484
275.3060003
281.310286
286.6727301
293.6704767
304.4139091
298.4401621
301.2539783
299.8856514
309.7624131
295.9574572
298.1022092
298.6677407
306.7104209
306.7242563
300.7118981
281.1524863
284.3616738
286.589713
287.016255
292.5741262
291.3243905
284.7751305
284.3865254
273.4922802
279.8287621
297.8890041
312.9829848
304.68512
298.6789429
283.9375917
292.3444029
305.899991
311.2571731
296.0914746
312.0234824
311.4834709
303.7851886
302.4235984
304.0765702
301.1535067
286.9258457
290.2035902
298.8821329
295.740319
286.1787822
293.1368677
294.4131375
305.7835304
312.3177587
318.6822764
305.9594032
291.5731464
294.4008882
310.0497128
300.4699321
295.4877006
298.3063055
311.5659774
298.5590372
313.2236123
305.4229229
296.9054232
291.0993357
301.3434401
300.2465161
308.6499107
300.9512546
298.6475016
294.6750557
290.5684964
293.9666959
306.2015955
318.1560068
299.679279
285.6594933
287.1983867
285.1820994
295.7597889
294.3452702
285.2984041
294.2485178
311.6041792
299.731757
299.7658321
304.3170223
319.5112201
314.9274373
318.5359357
316.1809484
325.8766641
329.7909992
325.4563501
318.7188147
309.2391351
306.0283141
299.2557137
298.5706458
289.5884241
303.3094458
312.3698827
324.0419124
323.3519693
331.6834628
327.3991971
322.5928921
291.7259636
294.0460347
290.412471
293.9859338
291.9084673
291.3140903
293.01072
286.9966009
280.928042
284.3244033
287.8261453
302.3002073
290.8081969
296.6158625
309.8632844
314.8533377
308.8808028
310.3111613
301.9153954
288.443582
295.9224628
311.8425445
320.486111
301.8021476
298.75343
311.2508744
296.4661353
296.8321332
295.3769851
302.9564411
281.8867418
285.14558
293.007898
290.9501468
291.0657095
289.2261739
300.7832068
290.2462047
277.3625654
287.3347446
296.3629453
290.8588889
282.5930354
291.0199689
302.6060766
310.340199
310.3900395
298.113715
301.3990504
305.5502831
307.6631033
300.6823804
297.992667
297.2615089
297.9376144
303.6871781
302.0294514
298.7101814
301.7325147
293.4762208
310.6579922
300.6935165
297.3926187
303.9461532
301.9600085
300.9590445
295.042435
297.9930174
299.6294532
294.9032151
299.3934616
319.1363696
298.1608366
296.0087829
286.1679207
285.5788433
284.9527871
288.8697667
295.0461812
306.6051012
269.338403
275.4889824
279.5421509
293.2456143
306.8568828
302.1220577
296.0582157
294.1644188
302.5571061
304.6108393
294.1498144
284.3483324
283.1644149
287.0541099
287.0243468
283.5720484
279.2208037
275.7771323
279.2905978
278.4341807
309.8534986
296.7140001
291.0929795
287.4554584
299.9525917
290.3736096
286.3831551
301.418368
297.2468173
283.1976743
283.6986214
285.6680402
284.0455002
294.5248721
300.3649099
304.7205917
299.494818
292.921731
297.2128115
297.580239
300.4941174
301.7901014
284.5502075
272.5385247
283.0550781
293.2158924
283.1935506
280.9229865
295.8084477
308.5734892
305.9876381
298.4679102
296.9427844
301.5071598
294.4820773
296.1395261
298.471452
300.6204408
295.6156979
302.8328245
297.1702183
289.9920587
300.3341294
306.4847324
301.9736706
292.0721226
297.88148
305.7765285
285.3953906
273.7130083
284.3989389
292.0938102
301.0781979
312.8320747
308.0630585
305.7679271
305.5951345
312.3521745
302.3554729
295.2556908
305.430869
303.8205402
298.4254191
286.0656457
285.8796198
298.3014517
299.7784599
303.2330221
304.2192135
294.7013929
297.6896795
304.8424771
308.4680823
310.2898278
305.3450959
292.0515062
310.0686123
310.8417143
300.2528409
306.7484548
314.3109622
310.4468424
308.0484699
301.7419905
304.27084
301.6065304
298.5395114
312.3774676
318.2149338
304.1558375
313.5071687
323.3823237
327.1322591
319.9168401
304.5567627
301.3469418
306.6307509
289.0631105
313.0505525
309.7009521
299.2075555
300.3238754
315.722549
307.8712696
311.1356643
311.3044286
308.5160534
298.9762903
291.8702919
304.6597359
299.3999184
287.0906949
297.6323022
285.0968389
291.4261602
297.0323704
297.4792404
288.787782
285.8771213
288.5738226
282.1059459
296.9143499
300.6378375
306.5927289
301.8232384
304.0452855
301.7739805
298.935475
302.7145486
307.0191885
303.8725827
286.95085
284.9538111
292.5276588
292.083718
296.076976
308.7331879
293.3764038
298.8038803
296.5281094
299.0976746
287.0860219
278.4242464
284.7236869
290.6209711
299.2109618
304.0663919
303.4061791
314.6561832
304.5480504
309.2955863
313.8465003
321.0279144
311.8685911
311.0567185
304.278113
290.4332704
290.7865837
297.4274299
302.4931097
295.3872691
295.9906176
298.7506084
288.6524318
290.5084311
297.9368544
293.6031181
291.7904947
300.8450466
312.3412031
309.0389122
303.9763753
298.1386795
305.1460548
295.4626877
301.6007744
304.2232393
310.2334248
302.0788908
309.6420485
307.6386422
291.568251
287.9189804
295.9987719
300.7398297
297.8057446
310.8826471
293.0557762
292.9796622
308.8827802
314.7967251
299.3795943
292.6256456
289.6644486
289.4018384
288.9652212
293.965939
304.0811902
315.7544636
317.7495612
306.77936
311.6744531
303.9971126
308.8945823
300.1392075
298.7268534
309.9647737
311.3666156
314.5210716
309.4097425
292.7188391
297.2834174
300.9966613
309.1298156
301.0730457
290.6077069
288.2188553
296.4188894
292.8768743
290.4000961
309.2005121
312.1955665
320.3919617
308.8636688
310.436955
304.1347813
300.5305582
296.5677742
296.9490452
299.9994723
308.970609
316.0853222
317.0732967
322.175033
313.8909998
304.7313119
308.8537416
312.1562753
312.5477378
302.1691667
308.0033812
306.6958352
297.6976512
306.1035068
311.1932765
295.2775359
295.6308832
310.6964411
325.6748674
306.979483
310.9772943
318.9215784
308.0865463
302.8308021
302.5608282
290.3848253
283.9077928
294.1548245
301.3672986
309.1211428
298.5656252
300.1347287
289.3535317
285.4044299
279.096524
293.2652096
312.8800999
325.6570263
312.8448514
306.2355228
299.091352
288.3936953
293.6141816
290.2555404
283.4351468
274.5106369
294.3931209
289.4044614
292.8354468
297.637223
287.2041414
293.7529276
297.3000229
293.7863088
301.1114469
301.1330282
308.4386289
322.5394292
319.9701268
304.1265905
287.1822793
294.5837749
293.8987268
281.2590107
287.9145746
283.3509143
284.2965213
279.8347761
274.6809558
282.0736966
309.2419302
306.5047365
300.5227861
323.0130522
295.6229463
295.03852
305.2780442
312.7401841
297.0362166
318.5421651
311.0069926
294.5606045
286.8657525
297.9999125
301.7700067
300.4411106
307.503174
305.9057174
297.2967015
300.4339532
316.1831302
313.4907206
307.4668917
307.0125821
313.0939492
325.9017093
317.3090868
313.5993248
308.3521753
303.0247895
302.3331358
312.2180374
308.3944638
315.6420203
308.2241513
300.3658877
301.1023268
302.3099988
310.1007091
315.7004728
302.5170467
306.6343783
313.317602
322.3514662
315.9982881
318.0377704
319.3382054
321.3838446
320.8203796
311.1344427
300.5270165
305.8588145
303.9612306
312.8479833
304.7389658
298.1454655
303.7178453
319.7671167
317.8348647
308.6713091
297.419971
288.8773618
294.6551479
293.7125214
305.3757384
281.2262257
292.7848986
293.4725724
284.3731238
305.572698
302.5240593
301.3995342
298.3462348
297.264793
307.4398816
318.4579587
317.8103841
304.242266
298.4021892
303.0335005
292.9984853
285.6388109
292.2352562
297.334862
294.535725
302.4764986
310.2179898
299.2091144
295.2797197
297.3432244
297.4473761
309.0308557
308.6534582
305.5981731
306.8751431
311.8451614
307.7015252
302.8051356
296.4619809
289.3003682
293.4839795
294.8871136
296.0189759
284.3420188
276.6870171
276.0699016
286.6053688
286.4446389
295.7018981
296.9986771
304.0782522
285.7646453
288.1540576
297.4803641
296.1189441
311.3266858
310.1840113
305.7892729
292.1709172
285.7047771
292.1860527
291.0428562
286.006011
295.7214212
305.2183034
297.5580492
299.8685268
313.0778201
302.3112558
295.6211526
300.9013396
306.4106744
290.0402575
299.0124294
303.4013281
295.1818381
283.8796391
295.3643201
304.9369231
312.8281173
299.3768201
309.7923882
308.139247
293.6331147
295.5738764
293.3631297
300.1322795
300.2019786
296.4645492
295.6265886
296.7885944
309.1616599
311.900524
290.4370814
282.0835363
275.402153
285.9555971
296.2624052
288.8382517
291.7765108
300.6368536
302.0308605
306.2303183
297.0901056
313.2909454
292.0598037
279.6542973
289.0493041
289.2383696
305.3153742
293.924676
282.2056712
283.2085872
291.8972727
288.1942793
291.7163194
308.4414116
300.2407918
302.5259637
306.3623469
298.1358158
313.8243675
298.5009873
294.7358181
299.2092118
295.3802823
292.6029054
293.6926255
289.0970504
278.3624609
290.0516183
288.4683988
292.8919988
292.5880925
293.9536504
291.488542
286.6837141
293.9673496
300.2955283
291.559976
299.8420226
295.9853615
305.8743041
298.69384
296.6388708
293.1151247
302.7459569
293.8903153
305.3866251
300.5021503
298.0630015
299.1951258
293.8071542
282.5923117
288.7173938
291.2197732
290.5565218
286.0933343
303.0126858
310.7521402
301.9935262
307.2004528
311.0199622
304.5324888
301.3427696
296.3411976
299.7655082
296.8979976
290.9082708
288.032185
295.7031292
307.2334926
319.3766416
310.1616953
320.4137863
313.7192765
319.4264343
324.8929963
318.1111655
300.6607345
305.5633354
301.8058833
310.9033921
312.0706984
304.9665161
305.004529
315.1250002
309.9912861
306.9057648
302.4247531
314.0211506
306.0715187
310.2059044
307.494144
303.1593577
308.3843236
295.9292827
293.5988667
296.8546807
307.2824308
303.6380624
313.4868699
307.5628243
309.6854848
296.4702211
295.4638213
287.7706268
289.6507447
301.6114723
320.0413231
304.3474328
307.2365509
311.5906054
299.7496252
300.9602461
300.1501897
303.1945555
300.6885469
309.0655162
313.1553581
306.7040484
310.2192143
318.4419301
315.5236249
315.131169
305.2235657
287.9523822
286.2604673
295.0409416
292.8246024
301.4111099
295.9616772
280.6682958
285.637071
305.1151505
296.8684778
302.1294794
308.2410452
310.7194275
305.2279737
302.105612
310.4921136
300.1031583
305.0826655
310.7442242
309.8684378
315.1780441
305.257899
300.5526967
316.1426071
308.8478594
299.9398989
302.3537869
295.9864894
301.6090743
292.8960301
305.0038815
289.0631777
292.5357922
288.1461758
287.4010851
286.5201349
289.7199289
290.8213591
310.9688798
310.4015437
316.9180873
327.1466816
321.8679517
295.3635883
299.3740764
296.7926618
289.1010028
286.4780097
286.9073952
300.9357034
293.0772614
312.9006012
323.7603844
296.9211361
320.5071028
322.4293246
314.0098821
317.3992453
302.4389894
304.3805302
291.2062169
289.7068281
300.0329827
305.9213834
300.838471
311.8996694
309.3236792
303.7869578
299.746897
284.2820125
290.0760332
298.841261
291.1250777
308.7295126
307.7166244
316.8903187
303.0849782
296.2469208
297.2778941
292.4751119
296.6056952
310.4542213
308.9514503
309.5815984
317.0256086
301.8965561
288.5205423
300.0411349
293.3880542
290.450187
292.7199151
295.533527
301.4083252
299.5186982
276.1667985
291.5150443
294.6146669
300.8695903
297.1347695
296.0586297
294.7635574
293.3805711
301.3008764
285.0574875
290.2851226
310.868945
297.4152686
291.86964
299.3320933
296.8203076
291.3786162
288.5500291
292.5087658
286.0935074
310.395516
303.4154777
301.5576105
310.6181996
309.4458455
314.338447
296.0470712
284.7915724
286.7071805
299.9509683
318.2356552
301.9351617
301.2920013
293.1085115
298.695209
305.4108816
302.0112139
296.5414453
292.6387418
304.6746354
287.130462
303.8986467
295.4082421
301.0586881
317.1719218
304.8893748
299.1467885
303.1660299
300.8614368
303.597601
292.4488509
302.3736176
301.2742311
300.9178744
291.0385885
294.0703801
298.1262439
293.1795413
296.0205633
294.7125771
282.3219205
273.2368963
265.936819
265.0128888
264.827637
284.7578466
292.3777727
301.3072419
287.9113598
294.9273165
302.3806362
301.424139
297.7268868
294.0554863
288.4030346
299.636709
298.2717694
293.4022217
292.0745237
278.4999457
294.3598766
295.9844425
293.0422244
298.5010406
307.2747946
305.503468
300.2139506
292.0594998
296.7762013
295.9834626
289.9089442
290.59774
287.0001031
285.6886064
286.3197658
297.0768534
291.7404848
289.9741476
283.829798
293.9763448
306.7480509
297.0024802
304.8926395
319.0356484
316.9685433
299.026077
290.888273
282.9178138
285.5825601
302.081657
306.1787458
306.4215246
311.9216844
318.4715765
321.8662945
316.309348
308.180314
311.0142157
309.2998226
304.1317843
305.6166348
292.3739155
299.8427169
294.2009428
304.8597813
312.0923324
304.9508418
314.9429738
312.8514243
311.1620691
302.6959012
306.638394
308.1458505
312.8442157
314.2807831
320.0961829
305.733729
284.6070949
287.5374565
308.8750739
302.5272017
290.3437451
299.452119
298.5265021
304.8914912
316.1004246
308.6557371
299.5210681
288.8200648
276.0816631
284.1831432
294.2785723
294.1903479
294.7543104
299.3594972
301.0545005
306.8387237
302.6132451
292.5481584
306.7634748
318.5434376
319.7709255
312.9125496
311.9658101
314.5587291
310.7901671
297.8025936
273.5690122
276.3508852
291.6263161
291.0618554
298.4977029
296.7946369
298.8657054
306.2636401
313.0883605
304.5116329
313.447996
302.6890138
304.6011815
311.4814862
302.9137393
302.9281836
306.9381996
309.2388756
314.2817034
308.2686855
331.5150045
326.0535897
312.6221958
305.527143
309.0491198
307.4747581
304.2907474
294.9872342
290.3186956
289.1597274
285.391656
293.2488419
291.9962436
283.6161589
292.894386
297.3951904
290.5319397
303.1951911
294.5569927
309.0325511
304.217222
298.3826545
296.7205756
322.6516319
311.2845034
288.4506174
291.1186351
293.7167751
297.3504529
292.4675249
294.1161004
295.5687839
303.7553942
297.8419448
306.0542806
311.6959303
319.6104554
317.0709571
316.3315416
320.4598678
311.5861345
297.9447565
285.8431079
272.8437353
287.7884762
298.2311902
303.2314615
290.2690778
277.8898633
285.6217527
285.0108618
288.4234561
293.034266
295.993247
306.0133882
293.0756827
292.0887126
298.208368
302.2063681
308.7383991
312.1177547
307.4248614
293.8776441
302.0884412
296.7639501
302.6683516
311.7993565
309.0629653
316.6245281
309.9094055
306.5740799
292.4733185
286.6705832
300.2597465
303.7655486
312.1036168
325.4309688
310.1854536
309.4326458
290.4049296
286.9638253
304.6230404
317.5350749
312.6066558
315.5919024
309.8472304
302.338199
303.7208322
315.9772379
321.8007761
312.6771087
290.2289713
290.7396141
294.8361382
286.4897741
292.0038816
296.6782906
305.6227136
306.8261937
307.2322061
302.9911727
301.6492092
308.4155822
313.7697149
297.9202319
304.7451505
305.1983712
302.0122567
303.4035881
303.9247909
301.1238344
302.3004042
302.0205229
292.505955
296.3094748
296.7943378
286.816979
285.6137092
285.4794252
301.0163443
303.3779063
298.5046304
299.7133436
306.9117749
317.3677897
313.7767981
303.5763101
291.0080534
290.4210611
294.9741519
308.678706
318.8640747
314.9520603
311.8682519
307.8213374
307.2316338
300.3190774
304.9020552
301.3596601
309.7852416
294.7045538
305.3708794
305.0436526
299.9508928
282.7695142
292.6018259
296.1408541
305.8213453
303.997683
299.1679927
312.1088659
316.9205967
305.6923628
289.2199255
304.7237884
297.5016756
293.0452949
286.7947781
280.1403353
289.2232025
291.5961586
289.4243039
293.028447
285.8175614
287.4818676
284.6912025
293.7309406
297.4357868
298.0893227
302.4911518
288.4152119
285.9365634
285.0151195
284.8740894
289.9710528
303.5453845
288.5801526
296.2986573
294.3877929
288.340153
289.8378377
291.0689017
302.3978663
294.1306234
287.222023
298.5749112
312.2515271
312.3664284
301.9456662
297.849642
299.9648962
300.9545582
289.7808865
293.8804364
292.4362058
293.9474437
307.6155706
312.6979089
303.5039251
304.5922304
300.443756
311.1413958
298.5766987
304.941131
300.4071911
306.7859323
312.5041791
303.3461332
300.1957838
323.3589214
309.2880353
310.282915
304.6677579
297.9784787
300.6649824
310.8464022
309.2423728
299.1219434
294.6464886
295.5772353
304.0202198
310.4297947
306.9189709
298.9778222
295.1046172
285.5366799
289.4526289
300.5698446
295.2101561
299.889758
309.474354
303.0759029
301.236509
319.1954317
312.2167253
299.5104106
298.452344
299.0497693
306.5029971
302.2638544
297.9474081
293.0364485
296.5748797
294.6655909
298.4050467
303.4632721
295.1682647
290.7466595
295.6926798
301.5621248
311.3150815
291.1470914
297.1054026
297.9967596
308.9368187
300.0556422
290.3115253
294.4120688
286.0255262
296.8475837
296.8582286
294.4589371
288.9320372
292.3040027
294.594145
296.9573897
299.6313882
307.0626159
305.0397734
308.8956235
303.5369224
314.7691986
308.0281333
290.8843738
290.1414151
301.9735472
317.4332254
305.6792093
327.1046342
315.7461854
316.3334145
312.6916044
299.7867526
298.8244689
292.689069
288.1786501
294.3400581
293.4018618
290.5952664
306.7356782
317.1157064
311.1290096
301.3022496
281.7737601
304.903975
304.627361
310.3645033
312.2570202
290.1158268
282.1407195
298.062778
296.615662
290.1832746
300.5689069
298.4127487
295.5945496
298.5922428
293.3935461
296.748552
295.5569079
290.1795468
286.4239609
287.7014479
314.6219903
302.7185309
301.4601359
296.4142695
290.206181
306.8003313
302.4217985
296.6439386
290.0798355
294.5732646
303.2684432
298.8700772
299.6706828
293.3559765
298.9763076
298.3468641
297.7426391
296.2015943
312.1857145
319.7634444
302.4672039
306.3492018
301.2748799
298.2317798
296.4115158
293.432175
283.1713795
281.2149436
289.1951497
295.9163035
284.3564996
276.3828552
271.0960885
279.3349003
283.0035731
296.2090112
309.1830787
317.2864013
314.025076
296.053393
312.499066
297.9336674
278.9859155
278.1439798
278.1386172
280.7521129
273.8349232
282.9671036
283.7019195
294.9807271
307.9317872
304.5738602
309.5418118
303.2958753
300.8303454
297.2706474
296.8691637
296.5579112
295.6429028
309.6473207
297.0792562
290.2110717
291.6828678
289.7294582
294.3309042
300.8493726
302.0508689
298.4768219
296.7776289
300.3960343
300.0270898
286.1255111
282.4770073
275.3811227
291.8122467
291.1760446
293.4093018
295.1228185
290.2469445
290.9200098
293.1820872
288.1907493
288.6137276
284.9298889
295.9993702
297.4114364
298.6348637
296.5603296
303.0381737
300.1533122
301.6796527
298.5900025
309.1415313
329.0615357
321.352591
319.5532627
308.7460788
293.9111929
312.8921439
297.5632255
306.3411488
301.5419737
298.2106624
287.5874845
291.1789738
298.7717263
305.2821641
301.0593278
278.3621436
274.4265543
285.9226781
303.5487565
308.1802397
299.891702
303.9426477
309.662509
313.2240584
316.9306236
315.1964652
299.9588572
291.6023208
280.3298353
295.8620578
294.2411431
294.9793414
283.619636
285.8433792
287.3921276
284.9057678
285.9362549
282.8312195
292.9061854
291.6461547
296.5365841
298.387619
305.4590361
304.0557325
305.8170944
302.4841212
309.4351116
289.2213377
296.1503443
285.7625668
292.6712552
290.3079952
297.5674919
287.4527155
291.9180499
299.340849
311.0416155
308.291354
311.8962654
305.4811815
287.5103648
274.072592
278.8690552
270.897152
266.6141381
281.8612612
291.2393373
289.7242761
283.1666673
297.7047734
300.0393526
316.4778623
307.695724
318.563374
318.9909654
312.74049
305.481225
297.0373485
288.8442152
287.9914572
298.6142983
302.8757044
296.4224499
295.1730558
304.9730316
307.5727899
302.3919113
315.1832903
299.4209522
304.3647947
312.6515712
304.1054822
296.2677644
300.3335494
304.0377267
312.7922843
302.2767973
318.6045037
310.582222
297.8086191
290.5311043
306.3442535
305.8210641
292.3636437
279.2207693
281.703159
285.5786335
307.5353203
304.2706759
302.1757381
285.7643804
306.3533776
308.0211372
307.5651403
307.6568147
305.803198
304.2325787
309.0124324
307.788398
310.5593416
321.589909
304.6955269
298.4678938
299.6650305
292.7118921
292.0641885
301.2786045
312.2136199
310.1392149
303.4188728
293.0261928
293.4121855
296.0075176
316.0324695
318.1536295
317.7258698
314.0651242
305.3502614
300.5114344
291.4834274
295.2842257
303.10922
305.9062524
302.6437043
300.0053735
304.1284233
304.0355735
317.9898015
312.1339223
308.5929921
308.7265021
298.6275087
292.4075844
293.4399559
300.888678
311.3025604
297.9331276
307.9731672
310.2533325
317.4062221
321.0897564
312.023496
293.9830074
310.3536863
319.1068644
331.7377654
322.4913366
302.4445737
305.0069144
302.5275016
297.1514141
299.6958053
313.2893486
310.9438773
312.9820017
337.9090702
343.5628367
335.133766
328.5732008
313.550828
323.6214897
313.9731481
314.9307885
307.3169944
299.2571112
308.8330313
308.6237426
300.9294611
311.4314277
319.3054423
320.3893072
306.0996581
294.4155628
292.42828
306.8820338
300.9957223
299.9507623
296.4511613
300.4423213
297.622606
295.1403906
308.8552837
322.3285223
315.2057692
308.6980072
307.8209719
296.4026836
309.818719
298.9317382
298.6303705
285.3660285
295.9105531
299.2551102
287.1602881
289.8840348
302.5694453
302.0129547
308.0949622
299.8048257
306.9093749
328.8748982
330.3271285
305.9920263
301.986276
310.3327688
327.7328567
316.3456131
299.7137761
305.1263804
317.0685195
316.3581032
314.5879747
299.9306548
298.4277729
295.3092134
293.1778219
287.577208
298.355924
297.808124
311.3599722
310.6899599
311.085691
321.4675496
315.3433654
313.8181435
306.9267439
296.2184026
306.2976713
300.0488629
308.2349055
322.9985141
303.576795
290.4860092
287.8542919
286.4445582
290.0407675
294.536959
294.6503691
296.3254208
298.3073597
305.9483045
304.3023735
303.466219
308.2627617
288.2022442
304.6888809
309.9809235
284.9361326
285.6026241
300.569563
281.2563409
282.199149
287.1978585
295.7709317
290.9169033
287.3235886
277.9664246
285.9294148
285.2517411
283.1560895
289.1930159
292.2040373
289.0962605
297.106085
302.0507522
304.6261277
286.5300532
307.3332811
296.4094621
287.5921477
284.2748582
277.4578791
284.9884867
264.0551626
271.2495738
272.9997352
276.4471185
266.8260744
275.9098988
275.011283
293.8413574
301.7290896
295.1822392
290.1234564
293.7970679
293.5043978
300.6485313
301.2066408
311.688659
303.8933593
303.5627724
284.9354287
285.1799356
288.8521875
285.5893768
297.6895906
295.2963818
289.4975857
288.9458986
290.0593996
292.2457771
286.636423
287.4837504
301.0787839
292.268282
286.9836585
283.1612749
316.7163293
304.8454394
295.0143885
296.285683
307.1579553
304.5708892
299.0426861
289.0814511
287.2324951
291.7721402
303.0474888
300.4505512
296.139603
282.3949265
303.8586805
300.2897144
287.5457321
303.5384823
302.1626601
312.3763198
283.2878023
292.198134
294.8912455
288.9612348
281.8295386
290.2531178
292.7872852
291.1534904
286.5495039
272.722566
273.3447983
277.5213658
287.9821826
302.5040423
303.2673333
301.1028931
309.1347583
308.7471273
296.1086016
287.0454673
295.8346257
304.6311698
303.9509606
295.1695011
296.1557392
295.0191684
304.3315344
287.1638057
289.1319555
298.5145476
303.282291
297.7146351
299.6530828
298.7586345
299.2793211
304.9936661
294.52884
289.5854624
280.7900711
285.7500246
303.2713275
306.0883189
303.806214
292.8407589
299.9197042
311.6849171
305.9517179
311.7462296
318.7680105