/*--------------------------------*- C++ -*----------------------------------*\
| =========                 |                                                 |
| \\      /  F ield         | OpenFOAM: The Open Source CFD Toolbox           |
|  \\    /   O peration     | Version:  2.4.0-MNF                             |
|   \\  /    A nd           | Web:      www.OpenFOAM.org                      |
|    \\/     M anipulation  |                                                 |
\*---------------------------------------------------------------------------*/
FoamFile
{
    version     2.0;
    format      ascii;
    class       volScalarField;
    location    "0.0009";
    object      translationalT_O2;
}
// * * * * * * * * * * * * * * * * * * * * * * * * * * * * * * * * * * * * * //

dimensions      [0 0 0 1 0 0 0];

internalField   nonuniform List<scalar> 
5120
(
317.0545035
318.7576997
311.2618253
335.3616421
311.4008057
297.4676339
295.1411464
285.1850757
255.762426
243.7138702
273.9249214
300.6695293
275.5302034
264.5199439
253.3876948
276.1066278
276.0986354
269.7418564
279.8716236
301.2128333
263.6739833
258.5066453
266.002685
281.4091829
286.1285202
262.1567105
251.6316547
249.3395616
263.8064864
259.1893568
282.1003063
270.9390032
303.0486247
284.7560479
273.4491116
313.4209122
291.337099
296.0369693
326.9519326
284.3369637
326.3596259
314.9300246
300.0549026
287.5502834
272.0461396
296.1754464
307.0960488
303.2684509
305.8076619
319.9014827
304.6477983
320.4644758
311.6949769
286.9826088
294.5967105
304.2402155
282.9107592
274.0681087
282.0811032
279.4382225
289.4950056
307.9066701
346.5927677
347.0189122
330.5904756
329.9503879
311.7042947
314.8787972
330.723126
340.7181622
343.8365223
327.6845234
331.0606453
346.2843764
325.4353341
316.6357362
307.506601
282.5987313
278.471166
299.8984205
286.7657312
264.7681505
229.7302422
256.0627668
240.7570523
285.5623756
294.9689352
315.1385834
335.250004
314.5294093
302.3164013
298.6957086
268.2035463
259.5074356
232.0149028
274.6256571
291.9633631
330.3844729
312.4153557
312.247536
273.5040595
255.8283634
281.3352477
279.5516611
291.511406
289.9003286
269.3639049
264.2058472
284.8144561
314.9914554
318.5413865
293.8905867
292.24648
278.2248969
265.7782369
290.4350875
289.8450758
298.4717688
298.7322324
278.5011458
332.6466781
318.2577018
326.4054402
293.9751495
277.801928
275.8954061
289.205412
283.1145686
298.4827852
297.0637094
310.9088164
313.1077435
304.2693457
294.313011
269.5811011
262.3609304
290.4853412
291.1015607
294.598945
340.6621942
279.6137563
303.7640802
293.5639937
310.1947327
340.8063233
330.9498736
295.8157554
271.3177607
280.6220835
296.8579416
289.002063
273.1317091
294.7531032
290.5466236
295.9914145
307.9942504
315.589891
322.6381662
325.4593153
268.6077621
330.1205156
307.027727
299.0858852
277.0303564
275.7988291
297.4929999
317.961878
308.2458828
291.7822446
293.6848651
307.6999067
331.8206821
335.9147785
339.2497886
324.4042502
303.9690432
314.9489717
324.1917347
307.0012323
306.3718847
311.733559
295.2613723
302.7798438
278.8789052
272.3809411
273.6903104
259.8381946
259.424067
277.812638
275.8017677
271.3655771
312.9738844
315.262459
290.6892077
276.2650685
284.2622751
290.9534937
289.7858579
272.5860943
287.8709171
313.0335643
320.591398
305.2887738
295.0675991
289.2328134
301.6266309
318.3495272
307.1187888
297.282342
319.6780279
302.7198773
282.2832407
268.7034183
274.2808099
295.27954
307.6154055
284.3613994
280.5967229
290.9907268
289.1885612
288.2883644
286.9871626
289.4465477
290.9431517
311.4410285
301.718747
294.4265693
307.9983814
317.0070347
306.3488618
282.2192351
285.8283963
287.3192296
292.8847985
325.2120168
337.7208959
322.6577503
352.2703033
318.8930542
275.0457333
275.6019494
297.7679119
323.8663758
307.968742
315.6784208
322.3427971
322.0666725
306.9600259
294.1825823
282.8024335
274.4007172
246.826978
247.7357145
251.1478778
268.3443848
295.7528806
289.7006858
277.5694324
289.5060426
266.3877012
287.7883101
300.6290307
322.7713816
327.1231124
327.1128524
319.7273032
285.0860568
274.8055561
252.4364806
252.7560937
279.6344945
262.0638061
250.2965649
280.264754
285.3894136
291.982065
320.8818877
336.1466637
308.2113417
295.1880728
318.7285953
299.785627
286.7668336
294.0753177
279.8583267
258.0387436
265.2760712
299.4194937
299.5012524
322.4896035
315.439967
318.8190473
328.9731213
310.1685275
298.0139208
323.3946684
331.8195845
296.443548
289.9062897
332.1842772
271.0253062
270.6239528
296.629726
335.5003423
341.6153347
339.1008648
293.8587909
290.5377251
298.209433
313.3477247
308.8130182
298.9660161
299.7454709
324.5210792
318.7487497
299.9625146
263.6488999
276.1451259
274.2107882
266.3942986
327.698485
325.312255
291.1285203
257.8387848
257.9599756
261.7909933
261.6078009
257.6516002
275.1800174
285.4873127
295.6533059
286.2036339
299.7929055
315.1209333
304.5929243
308.9084534
303.6795359
304.0322617
274.6012199
306.5256224
280.2909925
297.0137778
308.621077
277.8313562
254.9521328
261.7667109
266.3151969
270.4037136
280.9696679
262.5775815
260.8913461
266.4146612
276.7681616
285.7793069
307.271646
322.1511446
342.7313581
330.3192652
309.697191
287.0671074
297.7901422
286.2591184
284.2355504
310.200863
329.1403726
309.124978
273.0880081
280.0929016
274.0433319
313.5614786
325.732131
303.0639592
307.7498478
316.8528277
315.529713
315.9720125
327.4335072
314.2463748
317.6136228
312.5392878
288.8668895
280.8336617
283.9391382
308.3238344
278.2011705
277.1425717
325.2067916
325.4043911
284.0458301
276.3675994
285.7361906
292.9299052
299.1610628
294.4205639
304.639141
333.2275079
310.8578834
302.6944108
322.7559243
303.046851
275.7938933
291.8212013
298.3346205
300.4550584
294.3777386
270.3503331
253.3891349
239.3874101
249.6978346
269.7290935
266.342587
283.3078694
278.5535743
258.7690708
296.5754114
280.2435124
320.3145964
289.716565
288.0433845
277.2417868
313.0439002
316.9881678
309.2129899
313.7994214
316.1060604
309.8852499
295.9491084
304.2400215
285.5542644
291.477314
282.0095568
301.3291016
329.5685173
321.6849412
312.318896
295.870718
272.4008052
295.9610711
305.9068912
310.268797
312.2087273
334.5035687
326.6553024
318.8782842
267.5830857
280.0105322
314.7660455
318.4408227
320.0992158
300.8575264
317.6135383
299.8934594
285.5438181
309.7951236
308.4868655
345.4222196
334.082455
319.6072423
314.8579902
314.6245676
287.0672834
262.146722
272.6506374
301.9431233
341.4210876
315.6179482
308.2796651
314.0028393
300.2292517
312.8186325
314.2833382
317.0164292
308.3036608
279.8988514
272.3127599
266.9158573
292.882986
285.0424068
289.2334017
286.25682
284.3236558
298.9601415
316.9959382
292.4783216
274.5396066
283.5643255
266.001029
317.4423209
328.0413654
332.6825544
352.7829617
302.7178029
309.6306713
333.0719777
298.6514032
295.3364709
303.6291952
310.0002893
342.0493428
322.9487503
280.3110648
271.2948203
267.5634774
294.0964165
285.8780782
311.3732209
318.6549564
312.3036262
317.5196216
346.918006
326.0994191
335.8303332
314.8793374
335.6047176
323.8355033
333.7451111
354.5624119
351.4659518
340.6557016
290.8764519
294.747366
278.4864473
279.4603555
304.0703844
316.3999287
313.2788104
333.9800008
298.2844679
261.1669356
264.5726215
281.9120384
286.3781938
324.829647
318.4277568
278.0182751
266.0158826
267.2742111
281.9835994
291.7481953
292.6855524
286.6362129
284.8178913
246.7609164
254.1648204
256.1490952
258.7189944
271.6951878
277.102467
311.5101366
318.0588213
282.5623645
295.727432
300.4642167
300.2890215
304.4703292
321.7378549
305.5386962
281.1830257
282.3599268
292.316498
317.0999144
270.2643723
296.4776516
302.2233748
290.1995356
292.2686268
293.8468416
279.5784288
273.086995
287.9624797
336.6379219
291.4273213
260.7336396
261.9930019
246.4881675
236.4940021
248.8866402
253.6123746
264.2646032
289.2334989
324.4024792
313.1802071
318.1182518
310.4436571
312.4845059
339.8054786
350.0191998
361.0271851
326.0854244
316.4857639
286.8140148
295.9656616
314.3497932
310.901879
332.803488
306.6855208
277.3834255
276.9658019
301.0973061
301.19419
290.8821257
313.5574002
292.160614
276.1182438
274.1337344
294.3403911
283.3939346
294.3873593
306.095572
333.7030484
328.5048676
320.9699009
310.9899182
302.226339
245.8380185
270.5866344
271.618416
290.4671196
275.742521
260.1575827
253.0026193
267.4368838
302.9891285
296.7031836
320.6407283
314.4871908
322.1966585
326.5934075
322.4943231
275.8917367
278.649924
291.2442526
299.2273253
257.094321
286.8857336
267.553433
254.7129212
233.5783787
237.0082294
263.7987726
286.6562465
308.100549
296.6242928
301.1769966
303.4345931
283.9373535
287.3195296
317.4038188
314.3918739
283.9836705
271.1823578
268.1126947
281.2473467
266.1144375
269.1260067
261.8640238
296.544481
266.0062916
280.7690498
270.1936087
300.7449764
291.3760501
308.9318976
285.1771136
292.5387964
278.8804929
298.4936563
326.1856727
329.3840789
327.013574
326.1684508
321.6241225
295.2306906
293.0990035
278.458726
292.7403468
292.6496686
304.9858635
282.8551003
292.099355
276.6357048
282.2843931
284.7645125
299.9928966
287.332884
298.7182573
284.96288
253.255887
254.5588542
260.7779466
272.4322523
291.2703766
275.6382808
282.3730073
278.2290962
274.7813837
271.6587063
297.9502257
297.1420041
295.3836316
267.6950221
284.0542343
301.0181061
292.2758261
293.1107102
302.9156724
252.8828335
248.9447452
263.2550752
273.3769723
249.0360331
257.9637466
275.8953624
267.4864097
269.0377939
295.9058642
326.660072
287.8698685
284.1547845
269.690065
302.9931571
306.5255665
287.935264
286.8309757
317.4011769
277.9081498
293.1839498
297.5241471
238.0430974
243.1673052
279.3878953
288.09795
266.8854683
268.3996236
279.6555238
283.3361497
269.7459039
270.6792578
299.0655174
298.7244338
295.6790841
281.8095168
297.2303661
297.6203422
281.3550334
292.7372291
292.6496815
293.9404703
323.5769779
304.7142308
318.6277731
304.9823193
308.5452733
319.6680222
285.73722
266.3087825
255.1511841
244.724788
270.0945886
286.8711698
291.1920417
284.9461254
264.8164421
278.8669541
287.6890521
281.025696
293.0770962
318.4933176
318.0450607
310.9413585
291.9179239
299.2936493
297.9524207
293.4571583
314.2964691
301.9980835
282.4895907
272.3776764
286.7423637
315.4322474
286.0883647
289.212601
304.7039121
273.0910706
282.6997692
286.0558114
292.4552463
294.1503169
312.8362664
307.9521854
333.5958266
314.0655758
317.145076
301.0390347
277.8419218
302.3496757
311.519361
312.7402732
310.1893669
289.0868241
322.0919626
280.4511484
265.5652655
262.3787863
293.5060002
276.5719859
253.3474797
251.5783975
274.9822993
266.6091481
258.5932555
279.7946029
275.0195473
276.9416324
283.6143795
309.4955263
306.149325
305.9544098
282.2810315
322.6806904
280.1293189
278.5488434
285.3255158
268.7075597
264.8038301
270.8827492
286.5146353
280.9650182
261.9660895
265.7880935
272.9268641
298.0030949
314.0563581
336.4934902
344.3759992
318.9336999
329.3389396
317.1860336
301.4477895
293.4640135
294.1144285
294.0539541
285.2813033
269.942673
257.6477297
272.2814643
283.6249216
297.0487494
284.6598937
285.6462671
285.3422596
287.6758843
275.2412158
268.9373483
285.5325469
282.5373575
275.3596993
286.8355249
278.9063179
265.5307689
317.0440364
316.7345266
341.3947879
313.5440375
333.8410797
309.9702741
303.3657216
300.3871354
311.9396496
302.2894356
314.1458044
309.1978435
305.3061911
309.5496933
290.5633261
300.2647479
284.080217
263.3687216
295.1440879
310.242611
280.4711006
280.0538984
312.1833645
307.2336754
305.6997321
318.1675969
309.6089296
292.3721044
298.0003303
321.6641571
307.0058731
305.628635
298.7624648
267.780099
308.1502327
300.8391908
313.3094546
306.2290236
310.6498027
280.9376577
272.3604364
321.589437
313.4765981
313.4291389
298.9027
303.7036535
315.9342469
306.3419817
281.6138197
273.8578617
279.648469
286.8198464
311.0159956
309.9186953
287.315039
282.0996597
311.3453122
311.5887869
280.6789038
288.278541
321.6541911
309.3644628
307.495516
309.9423843
296.6225979
300.3534852
299.5798431
285.2389634
312.5144026
321.314255
338.0951601
357.0104811
338.9642877
322.3514804
334.9532993
309.2483511
292.6995616
284.955298
312.2676663
341.9771587
277.0442013
283.4973489
299.0517367
274.9061376
297.7738582
282.6963906
282.1909729
280.0617045
295.3938087
331.1936281
349.2255561
308.0211092
286.0393458
292.870063
308.0598362
313.5546565
317.8047418
355.4030256
325.2592999
300.5421411
312.4176992
300.8203026
294.6983864
308.1416667
317.9969291
303.3987562
271.9783116
268.4977407
268.8246229
307.0987424
333.7828517
322.1166099
278.8570653
284.8478603
281.9158645
289.3022683
297.1059916
309.811611
326.8552051
309.9841482
303.0229337
295.4046862
283.4402685
318.8581101
306.2240809
289.7985296
315.4787675
328.5024649
323.2461132
301.6429041
296.9282607
300.8581265
308.2921242
296.1056046
299.4240334
274.9542213
268.6284718
269.0633456
269.9167341
286.1071829
338.3362229
315.8181774
320.7759412
305.8127419
296.2497961
285.276888
276.7762413
273.7479696
281.2852558
274.0056914
284.0618195
304.3569182
319.2642511
290.3789311
284.881199
300.7890861
290.3297028
304.0147073
330.0032351
331.6806083
282.9684862
291.8347367
269.4364455
320.1461695
319.7874238
284.8145682
292.8730943
303.1353902
327.1546532
310.4420181
306.1567782
288.8313093
293.5184157
304.7866266
321.8673573
318.6761983
312.4570788
309.1981813
275.2030041
283.6093215
318.3672759
303.1957724
286.1543575
276.9736271
265.7691077
302.8228597
317.1323223
337.1183314
352.0389689
317.8491604
325.2128802
314.7437719
322.185971
306.7067466
296.5099412
263.8019473
277.8844077
277.3105407
310.8158084
324.6717423
291.8055688
293.1125809
288.9141008
275.5877304
310.3075433
313.2802953
351.9216936
358.926196
353.2733697
362.8815004
344.8609393
339.9590666
328.2637654
303.6213899
305.0220002
309.995835
305.7739322
305.3433286
271.2380871
288.8813798
328.8895936
317.0421186
317.6370716
312.2576704
287.3907274
292.2373028
265.7152402
274.3023877
296.5249102
339.8714628
332.3318187
323.510724
283.3953813
294.4693315
298.987418
292.996507
324.2466827
335.1151981
326.6385654
312.1876919
330.3860444
323.6089373
286.2088574
297.0269002
309.646015
327.4792376
315.0469721
306.7814404
291.3525332
297.3859531
300.3890653
334.5150332
342.9490122
321.6225793
346.1916917
316.1992413
322.1505642
315.1452254
343.1353079
350.096362
282.8688382
286.126946
294.8675807
313.2067609
308.7784475
322.4537438
326.7570615
315.7498047
289.603884
291.9405742
289.9497371
297.0743236
301.2464839
332.9671727
324.8479537
325.5866075
342.2793278
334.6341533
327.8006534
288.0801636
313.474791
299.8327537
284.5847486
299.5406337
334.6526559
311.0571775
299.3575731
300.2900596
287.7623152
286.5209282
280.6672399
289.0781668
313.3965143
307.963037
297.9729737
298.4927411
301.6721022
315.0047598
317.7446987
321.1943758
263.8740004
276.7800208
281.7888436
274.0344438
257.2494368
260.5014971
266.474422
270.398933
284.3129464
296.4472666
288.648964
296.3453021
299.9751098
289.8129891
263.1570458
297.6604311
310.5621176
294.3872948
289.8438549
281.4905235
301.3330399
284.3601676
272.9633669
258.066867
240.1368316
236.359459
267.5539794
283.2376387
290.3719659
267.5945889
264.1726808
269.9470675
284.9012993
295.4581999
283.6650268
274.698422
269.3380335
277.5728091
252.9171045
282.6412914
307.6240872
321.0082244
301.0978967
286.7555804
308.0051153
305.903475
316.972366
327.5172134
296.7276174
259.4734447
274.8869531
275.5458206
283.3826073
314.7557118
303.0110305
310.805559
303.7631161
306.9506166
329.0763751
331.8234973
311.4333687
336.0954243
339.6063231
323.6177878
304.7624588
302.8574099
323.8164298
299.4997831
328.5766281
314.090641
282.5497744
289.1166341
276.5938926
250.0667983
249.2955614
258.9351967
281.433058
311.6729541
286.5336561
284.8284086
342.4815908
328.9141978
309.4349675
304.6941682
334.107599
309.6628659
298.7088051
299.3677139
297.0887448
300.3373828
290.0026488
284.1124133
287.473437
289.6818716
296.8241822
311.1471848
316.7536886
296.1299735
309.7655773
325.0477163
282.8847822
286.5155759
288.1575996
309.9588414
302.8657947
330.0112966
339.2715508
351.5256429
318.6128334
281.6606004
288.0318482
294.9120764
331.2819201
308.513444
314.7133874
294.5387656
301.891131
294.9456082
296.6850973
280.3727821
311.0376654
288.270832
319.2774184
298.4589156
303.0660358
291.1367568
291.8175711
303.6903773
307.4242552
283.5584609
275.3261644
295.5771598
300.7005425
279.5064984
270.3518326
309.8834639
327.6140975
309.904795
307.7202925
325.4405628
295.4031806
336.4371328
317.4681556
306.9554304
281.0083598
290.7395236
278.0480502
280.2939944
292.0089572
293.3941491
284.512426
307.8107782
339.9306664
325.5471685
334.4433109
311.6191569
302.5671993
334.6160601
354.3391067
303.0663836
297.6754332
302.8171094
313.6259661
314.387076
314.7021613
302.3766411
323.9153952
310.9126506
269.1571119
271.6219868
293.5507914
297.7451788
291.1611352
310.7382653
289.9604137
277.162613
274.2213578
279.1417635
310.0048564
316.163371
317.642795
293.7913669
275.8147015
277.692171
289.8312071
310.7702451
295.7806201
307.7289125
319.2549407
320.2200404
319.8862731
323.6997131
331.9534391
319.8041523
340.6743861
326.3531091
301.1509366
296.3237337
318.8253781
313.9546136
318.212159
326.2936777
337.4834583
338.1646538
305.4280913
288.5259872
280.3904997
286.1497066
293.1002687
262.524477
258.7002498
244.6975624
259.1696949
275.8881474
319.9766905
334.3797786
357.1034049
323.3151672
319.2103447
310.4327134
299.1892899
325.9249323
315.9581856
313.4163124
323.9825659
300.3998029
296.9388722
297.8313806
282.3509865
319.9415712
301.7857179
293.5371161
308.018576
318.7860553
303.7319695
273.260412
293.6681736
291.5642783
305.9320638
289.9759481
241.4161635
250.1767321
276.0341314
300.7301032
313.0479749
306.783607
316.214343
325.3617247
330.1033597
289.599176
308.8376912
317.7164697
299.6337683
279.0032217
276.332135
314.5246587
306.9416634
304.0663169
284.1171398
276.7605899
335.0178644
335.731008
328.9402142
319.2384259
311.2594726
311.847913
302.136133
315.4329156
314.0297035
312.6739846
297.5706241
296.5612764
302.6652815
331.3360883
324.352579
271.3094993
276.828948
285.044657
297.3184835
304.1166772
270.8012814
296.8989037
281.1378607
297.0460921
282.7104721
279.1077849
292.3968738
291.9505363
307.0899563
311.9738205
321.2610825
298.612575
276.1557188
310.8357358
311.0051518
284.1481102
270.9116067
277.8155785
262.5794231
253.0314574
240.5949231
268.5784442
295.9053987
312.654219
288.8199409
261.5546145
268.6416536
272.978139
278.0701483
261.660658
280.4685944
305.5149337
289.6257799
284.9025832
283.7327639
303.7296495
288.8649463
255.7797091
253.8832458
244.1927589
301.3716547
286.8315369
259.3694606
268.8680452
310.2407006
282.085816
276.2578068
257.5482461
259.2883766
268.0026353
321.6247126
300.2090296
283.9341978
277.9991275
290.4272613
301.8329284
317.6474468
301.0144419
268.3897657
286.8350923
291.9169282
307.1579188
307.1427183
328.4015322
345.8012174
298.1711073
261.8579989
254.4118091
263.6267592
316.9980196
297.8399461
314.1039573
299.5790308
300.172674
265.4245865
283.2045339
284.8971629
291.7101682
316.0120297
319.1723441
294.6030043
297.549575
290.889969
285.3370544
288.2733629
287.3431484
305.9105556
296.2117784
313.6471423
307.6481257
325.092049
318.2944677
337.9531859
305.6282784
302.317435
289.2243063
319.3574819
327.9497925
327.1479248
302.4074059
345.5875256
323.5457724
333.470127
328.9399244
304.7861233
328.814035
327.3825377
303.6716695
306.618224
302.6651525
292.1823915
301.8397982
288.7903332
271.8003814
268.3396717
297.0341242
279.6988547
285.9813102
295.8013896
329.3360973
302.9718401
309.8098533
293.1707145
326.8409675
347.2617393
285.9031441
258.4616338
240.3178696
253.7191918
296.632673
292.3471055
291.6842272
292.0619995
321.1424541
347.0426437
340.2273514
308.5776328
311.2404055
335.6848004
330.4454224
338.3089553
337.1208134
367.4434215
341.9746836
327.3113258
311.262702
323.7710367
327.2612683
324.7902935
328.9231903
321.3253192
321.4636679
329.3041547
338.4145119
311.746495
313.9613548
293.8080825
281.2708391
291.778334
321.3008495
312.9317847
303.2840336
292.0965982
292.5598532
321.0206338
317.968795
290.5745183
289.8068557
277.4540339
278.6888329
275.3901106
274.625298
286.7128729
315.4050421
307.885035
319.4576549
326.3041302
312.918166
322.4295236
336.9116914
326.2425115
305.3226479
282.2570111
305.3317657
304.8214541
304.4977258
297.2632533
275.5503214
250.5910856
268.7034181
276.2221687
280.2654808
283.5793537
293.1512594
303.013865
324.5855756
315.4641394
322.7271584
305.8915582
301.5508639
309.2725788
298.6111118
317.6770363
321.2614586
313.5977852
317.1502561
298.5675243
305.61771
308.7430359
293.5101208
286.746691
307.9286224
330.0346738
274.7024402
263.6054699
269.6667946
282.1334145
274.6029898
280.1079315
292.2738792
274.196803
284.4502424
278.4419299
283.3400926
311.8652473
288.3724024
302.9589933
258.5289977
241.2980537
235.1477379
284.5762058
300.8871553
284.7567809
308.7933149
300.3256289
282.8975721
264.1898585
270.2958497
257.3638721
287.8160364
298.3734047
313.065667
326.6686879
328.8120738
331.7572026
300.2746159
277.2658729
289.0200019
277.7686445
281.1628521
271.4075949
294.4764652
295.8796331
285.4492216
268.7782471
270.7218185
299.3256347
305.7371768
291.6119282
276.4337575
303.7350769
292.6687224
280.0245737
289.2161748
297.8902929
294.2937444
306.7794531
296.9499089
291.3738011
287.9212145
297.1070733
297.5636532
301.0400787
311.7772168
295.5027084
302.5988343
294.0022565
288.5776733
292.289096
304.5941955
303.0038391
288.6132641
281.3023098
285.1242642
284.2452837
307.6803779
284.6286703
270.0818537
311.0610026
318.1069935
313.5524823
293.9803634
287.9664131
283.4986933
296.7450615
317.581404
329.7673552
313.3342805
281.9273677
299.5033018
280.2990023
277.0335776
287.8136395
312.5154871
303.6588858
290.5680366
291.3754674
297.3768163
302.2589618
309.3301551
311.1657159
319.4339317
305.0749637
316.4406067
312.8547814
316.687536
299.0875021
297.1379411
310.932256
287.8409983
304.3028196
311.1213255
319.8842751
313.4078567
305.2591549
280.3752008
294.2535914
295.4127388
288.3523975
303.6869618
318.0097191
294.3421924
289.7487095
260.3106528
250.7018006
307.0427099
299.6894918
290.8888341
322.490924
310.7804214
338.9250687
292.0413713
283.3804814
288.002375
301.1893707
281.0381197
289.4334872
251.5865717
282.9353805
270.6278235
253.9054246
261.7574389
267.114909
275.4409274
292.3149157
307.4427157
341.9343221
387.6081122
356.7835037
342.373335
278.3728608
299.9455995
297.01422
274.5355452
260.0425247
282.1952121
303.5513937
312.9149927
255.4406449
257.9088485
266.0833702
253.2436507
280.2391777
307.6583738
320.0456253
307.9129221
272.7456768
260.0592301
270.2426738
245.7401463
336.2962294
332.2761829
318.1962324
280.2313686
281.356082
303.9679838
291.3840351
277.6925864
282.3774351
295.7762688
291.8743077
299.8045389
308.0338863
298.4604158
309.42321
269.6667565
273.4068121
301.52457
323.2674608
327.7817484
289.6780991
279.0648254
299.0769455
314.1029647
306.115814
309.6387582
288.1947272
307.6823529
325.7511308
304.3196478
290.8154564
287.572699
295.5680827
294.6156091
302.2765197
304.881424
335.0532819
304.5440795
297.9746109
323.1512032
238.9446314
265.3941588
290.298211
300.9344137
287.6666986
267.2747957
286.7631325
300.9291059
282.0185401
288.952942
311.7466347
295.0721699
282.566467
295.3394903
295.5635228
288.0243489
281.1760489
280.9752276
252.1650379
242.7660958
309.6544634
296.8465318
289.2507813
293.7146197
290.5798094
335.3646706
302.9241959
315.3255831
302.1883223
289.4412801
287.0525063
307.3736398
330.6383613
337.1679821
330.3708982
307.1137579
313.6111954
326.98998
308.8907594
318.0286281
316.9516499
326.1609476
285.5722747
288.7686783
300.1270316
312.2616703
310.9995229
305.4842109
294.3390496
295.6138814
312.5820054
323.3632314
354.8937525
326.9943112
330.5674344
360.8783534
373.6853695
360.8389873
332.5798226
326.4044495
286.6215107
307.0677293
321.5308331
366.6404945
319.2604988
348.1329101
328.9468288
346.9194203
339.1984466
311.3539127
326.4628565
300.6025121
285.2664112
281.0844622
292.5546214
284.2090601
315.8991477
334.8409589
348.8699439
302.212771
287.5557383
311.7925247
323.2424754
310.1933065
322.3322942
309.4394918
293.1369167
289.2016644
304.5270622
305.4696651
321.5942685
318.6504962
298.1146518
284.550743
283.889829
313.8040849
318.2372142
299.1348572
284.9446271
310.4479115
320.9341494
314.1108926
334.2319075
313.0115112
321.9963072
327.3570394
337.9336189
321.7392618
311.1046465
307.3879465
316.9097501
308.5480629
299.6807213
278.5525399
281.6909223
275.6518707
296.2999171
301.2576131
306.1194339
308.7219777
315.297774
314.7297729
284.5768139
271.2389195
295.517348
281.626215
286.2124059
253.8039518
273.523446
288.3606587
277.7755608
268.0142484
255.3087002
271.6597938
270.0145215
290.2996481
308.4292117
348.756051
338.3613305
295.3087732
303.5651818
294.6952971
279.5123794
288.4464815
285.5638383
300.1365125
287.1121797
295.1783094
290.6804825
301.5556072
313.7500125
304.9639524
333.705578
326.2573431
346.7974669
326.5375938
309.7814924
305.6173838
299.9786666
330.7599907
310.1849695
304.4473887
311.1626881
289.9567141
285.548268
299.6990588
287.8700588
273.7158767
279.8929033
280.9856924
281.258941
267.6461356
279.1224764
258.2170535
279.030039
277.9889526
264.1264146
281.0003573
282.7083782
288.5372562
291.4771894
284.7806224
269.9483633
257.1563489
275.8635301
273.322373
271.2754797
289.5710922
289.5932576
282.2241388
270.8493092
285.3866948
315.1282671
325.5257332
320.5079086
316.6035947
332.4130129
312.8498049
324.0080174
305.0518686
292.9463923
278.3441745
288.9375135
297.4140061
296.6527554
290.3844091
320.8595108
312.1296341
294.0740379
272.8120949
263.8906596
295.575027
304.0108139
328.0255801
325.5114419
325.7935992
318.7058965
309.885592
273.5949649
264.1096155
285.8659808
274.8474259
291.6513206
260.9296704
264.8587276
268.1695584
264.763271
258.663488
254.8907422
271.2279668
257.4732326
285.5871814
292.7956663
299.9349283
279.8001425
259.6729064
282.4666467
304.6581146
306.734068
311.4145598
299.2026809
311.2580202
316.8665754
301.8251282
302.898168
322.0262311
277.0649058
296.7704592
309.6059506
326.9737753
330.6562334
323.3659731
328.0403383
304.0556612
283.1825109
301.3738505
286.6839387
258.7524236
285.249013
290.1966705
243.402755
251.3275029
283.8211788
294.5434934
297.5356103
294.5063595
303.0307616
301.6900192
326.4985697
305.5144927
299.2815769
287.4596827
264.863503
278.4286825
279.3012112
268.3958827
272.4719526
271.9006251
263.3879654
275.0246766
344.3636485
320.4896008
310.8919822
320.3149558
310.8187321
265.4123937
270.7675953
268.0098584
279.5271694
275.4842145
293.0508591
302.1979275
283.7819495
298.2310648
311.9737961
298.1125512
301.4090473
301.0821951
306.2859652
339.1530732
311.6601233
290.0776218
292.9089042
284.0302226
316.2699587
315.9038077
308.5629949
291.6542736
306.1810113
303.6514337
292.4190907
290.1434632
280.4767023
301.530502
318.6077592
341.7232695
332.4635372
321.4460572
308.6309654
315.468116
285.9980671
319.8666523
315.6141944
297.2644141
290.7441066
285.742794
319.5310383
337.3493989
335.9587928
336.5645833
309.5568594
289.9301997
283.1119751
276.3345383
273.3354264
280.1526153
305.7157578
315.2929309
318.8308056
298.2042327
333.4674207
323.5153579
320.2405755
326.756795
332.9881663
333.4369826
326.224721
308.4376786
317.5493797
327.4530726
324.0978998
343.9411799
356.3666231
320.3483507
324.0598976
319.3544178
317.5072257
323.7470281
381.0198977
347.2216357
314.2366843
329.2568068
331.8882631
316.6127515
329.1730365
329.3258289
319.7582792
366.6083567
402.1243897
408.3648515
365.7735105
352.2927721
352.6579331
357.9455443
319.2677673
313.4675092
319.920003
310.4746796
303.4849579
315.1104638
310.3200986
312.1180142
324.550745
333.5863523
301.8050223
299.2404772
301.0490332
317.5478624
308.4584661
284.903031
268.1035318
285.9114976
275.5176688
291.8560788
306.8068282
305.3280706
289.9065994
318.5400698
303.9769407
292.2939928
329.1296135
324.4353693
315.2989313
285.5015339
288.4466103
284.0753244
266.6347302
300.8571454
322.7386272
323.4501285
324.1936733
326.8430575
338.4893636
357.7315461
350.9673789
310.920398
303.337287
288.8155986
341.5855792
330.1441878
307.5944796
330.0537917
316.2458005
316.8403277
305.0871018
305.7096924
319.7521619
315.2232564
299.2628053
277.2617823
302.2725537
308.1384078
322.327325
301.8143384
290.085427
305.7037926
285.042454
294.1243614
299.4851979
312.023654
317.187967
273.1526115
289.1382318
318.8671759
310.7589894
289.1845448
290.239749
306.5440298
330.4638382
332.2680454
284.0424817
271.8111809
291.2111441
310.3173685
320.3316086
328.7259312
305.7507139
282.6376647
312.8327995
331.9513963
282.1951115
293.1716172
313.4015055
303.3855339
264.3812651
262.8291858
294.5848513
299.7932643
286.8210154
287.6973968
321.3095241
304.6560758
286.730486
286.8258247
273.4960982
254.7013646
277.767146
300.2492883
306.5969381
266.7363937
329.901557
303.1947055
283.6545892
261.387275
263.8160799
291.8369406
261.3665617
281.3547024
269.3448955
279.2076166
270.0528744
277.7242115
288.8509117
289.1509668
282.4375429
244.6609357
258.5538673
264.0632424
281.7958408
313.7887771
283.3258365
289.4239195
281.0108179
269.9577123
253.6069258
243.8141459
243.445694
257.7437519
268.4713968
289.4594528
285.3413378
269.3395666
264.2494698
271.145597
262.9110916
274.0483552
278.460815
275.6823106
282.0395022
283.983516
309.4349266
307.7835845
299.5190865
316.3171179
328.6283789
303.9685552
302.8242351
276.4473265
261.6879293
264.582208
297.6380768
289.0857629
265.9675714
266.2494491
310.403216
309.0980505
280.5312654
307.6394205
327.4289579
336.7260063
256.1917977
281.8426391
280.3813358
295.8788308
264.7553179
285.8703486
277.6992724
294.7188976
283.3695136
258.1310761
266.1378317
267.5004027
269.9959823
272.7437279
287.1944925
301.6552664
299.390644
284.0501739
259.3808598
242.290198
282.7968331
286.9923162
278.4141583
270.7809563
259.1183323
275.7719717
281.9716793
273.5708954
266.0882364
287.7396206
284.5502476
283.1621898
277.3389139
301.0020991
314.8082968
300.143938
275.8622152
282.2866586
274.7913533
278.1341783
279.0927973
272.8630316
256.6356235
264.2453317
294.8319748
308.9533149
318.4596479
330.6976285
307.3818377