/*--------------------------------*- C++ -*----------------------------------*\
| =========                 |                                                 |
| \\      /  F ield         | OpenFOAM: The Open Source CFD Toolbox           |
|  \\    /   O peration     | Version:  2.4.0-MNF                             |
|   \\  /    A nd           | Web:      www.OpenFOAM.org                      |
|    \\/     M anipulation  |                                                 |
\*---------------------------------------------------------------------------*/
FoamFile
{
    version     2.0;
    format      ascii;
    class       volVectorField;
    location    "0.0009";
    object      UMean_O2;
}
// * * * * * * * * * * * * * * * * * * * * * * * * * * * * * * * * * * * * * //

dimensions      [0 1 -1 0 0 0 0];

internalField   nonuniform List<vector> 
5120
(
(1966.808831 -7.002353576 5.486312219)
(1971.992092 -38.01460654 -25.93623655)
(1939.178717 9.475349718 -12.16931422)
(1945.606483 -12.10500377 -70.23448504)
(1951.062233 -23.05810828 -69.62140148)
(1953.844536 -9.868656604 -27.94824847)
(1949.861064 -1.406181463 19.97313535)
(1953.14034 -11.15490117 20.03733857)
(1951.875417 -12.91577763 40.92127393)
(1931.63564 -4.828023765 12.88669871)
(1923.769634 5.105245579 -2.285035238)
(1923.68952 4.294568477 29.89420351)
(1970.04856 -16.22714027 50.85239614)
(1989.163745 -31.01359321 57.23358309)
(1990.612224 -5.680389174 36.46077335)
(1982.752727 -4.080555313 9.190933778)
(1938.404392 -31.92541917 27.64063335)
(1950.216248 -5.686429938 -4.632482743)
(1970.560221 -17.93649826 -5.478404679)
(1975.755773 -18.31232932 -12.85946521)
(1957.542722 -43.88795684 -4.887973044)
(1960.646355 -52.0329691 -38.20060271)
(1943.267632 -38.81350457 -33.33715953)
(1938.249386 -25.24851727 -38.94468103)
(1945.828062 -29.40076293 -26.98732582)
(1966.246244 -20.20252487 -16.14384219)
(1967.701759 -28.15795909 -9.681817047)
(1964.64302 -22.42575044 -9.005784622)
(1971.362388 -20.02582976 3.839205022)
(1967.128649 6.307753799 9.718042148)
(1940.372656 6.393443814 13.38113896)
(1904.962269 12.0517388 36.34503493)
(1891.585765 15.10870796 22.93915883)
(1926.479418 23.7581435 12.86027239)
(1957.69226 -16.49071763 4.593730259)
(1957.676153 -9.388248411 -2.899320232)
(1982.055128 15.49560616 -0.8476657465)
(1977.800262 -24.16164214 -3.292449814)
(1958.418367 -15.49655956 -12.86970289)
(1945.291563 -5.196610768 -6.81995143)
(1984.309464 -23.47017455 -34.91533107)
(1977.0386 -25.91977527 -13.30788844)
(1952.896395 -15.32625873 24.76146905)
(1953.443895 -20.13406995 15.59918655)
(1958.009808 3.53789809 12.6286084)
(1954.019337 -4.888391553 7.301113078)
(1953.276957 16.38459877 12.66233252)
(1966.808022 12.88117405 19.03985233)
(1954.327274 36.33901254 9.338644989)
(1938.192266 15.60426894 -30.35585877)
(1939.188203 -2.528414046 -32.47395257)
(1929.036023 23.96684281 -25.41733677)
(1954.954415 19.45894085 -0.7843808072)
(1988.17762 2.653940085 -3.318613435)
(1943.648537 19.29145259 12.4144633)
(1920.281742 26.4219417 12.35379636)
(1941.808169 -5.714237526 5.691569247)
(1943.943846 -7.950769269 -0.498496324)
(1961.277447 -6.747642368 -29.0673419)
(1960.462171 -9.509815859 -46.0209596)
(1948.348591 -29.86236468 -46.17492727)
(1951.813441 33.82257529 -16.46582606)
(1949.526704 59.12991816 -34.11927133)
(1964.317989 53.42674385 -31.46609733)
(1966.979047 12.2740818 -38.37995044)
(1966.007251 1.162331774 -41.2645465)
(1940.164361 -8.236441051 -54.50123331)
(1921.663834 6.260846186 -38.85518824)
(1894.024386 4.608819865 -31.18990992)
(1904.589189 8.928582738 -39.15607928)
(1917.032327 16.0866922 -3.853365219)
(1929.471771 4.174716375 39.50460572)
(1908.008144 14.4317923 34.68532544)
(1915.064716 29.97114093 0.685013963)
(1936.960237 5.074718399 -26.6647803)
(1936.66214 -4.689445107 -46.64299943)
(1927.76537 6.35656026 9.406372584)
(1952.93524 -11.97594519 22.83984919)
(1988.477901 -15.96288879 12.53858487)
(1962.129944 -39.53285638 -10.92961707)
(1942.71373 4.351028148 20.26173472)
(1928.15284 24.72074213 -1.567599788)
(1934.828012 15.82199192 -23.70652028)
(1950.453678 33.15295346 -18.76852524)
(1952.337242 17.34630555 -6.442339145)
(1962.172436 -5.183567773 0.4191463079)
(1950.4636 -36.8145723 47.29330346)
(1930.737488 -26.49830404 46.87395793)
(1940.594218 -26.2695847 21.20663796)
(1943.559007 -12.82467199 -10.27229328)
(1931.796257 -3.64146202 -2.012724905)
(1928.493383 -21.61569173 -8.021443113)
(1916.422943 -11.30576781 -7.941710164)
(1903.734837 -7.016761625 -4.92993542)
(1931.937698 29.67016947 1.69845308)
(1926.4657 16.62600211 -8.280132494)
(1940.951357 -2.859134212 -23.87053454)
(1914.286445 -23.66455118 -22.95788246)
(1912.829757 -47.14229609 -25.4199898)
(1927.268338 -29.89725924 -9.582894536)
(1953.909177 -18.63087161 -10.94384137)
(1975.417534 -12.51401226 12.53370525)
(1953.329874 -27.10906498 1.942546475)
(1926.204142 -36.30250712 22.69417224)
(1908.352577 -14.84904021 -6.760613694)
(1907.679465 -35.95221262 8.628318191)
(1948.024749 -40.37769912 -15.73926151)
(1968.318393 -24.03930787 -13.32789271)
(1979.277191 -2.543427512 -33.81876809)
(1960.090175 -21.26940199 -39.72876037)
(1936.186365 -28.92774523 -21.37621127)
(1936.320487 -27.81246451 -1.914828807)
(1935.372149 -25.40967537 -8.636562769)
(1915.53841 -13.62078468 -32.58294557)
(1907.214197 -13.47644349 3.208666693)
(1910.580246 -25.17913853 44.65146574)
(1896.996639 -22.64659663 36.49096748)
(1901.01421 12.75374101 9.864444872)
(1916.996208 27.27811812 14.88119177)
(1943.917803 22.45885099 -40.59497405)
(1916.634854 31.85560371 -16.56883926)
(1914.155174 26.25865609 -9.44855557)
(1921.207355 45.85730047 5.247349762)
(1910.919745 22.01471736 -22.19475832)
(1930.140239 -13.8769909 -25.64961227)
(1920.092485 25.3072065 18.88392585)
(1927.580557 -17.2812747 51.14738923)
(1920.48583 -46.65833542 41.87276927)
(1902.261014 -38.75918984 17.86386353)
(1901.312517 -25.97089883 8.591907868)
(1914.740604 -33.50092298 8.416832537)
(1891.568555 -8.956406399 53.56726671)
(1914.20702 -19.01183937 22.59001673)
(1910.686844 -39.9404765 18.0243703)
(1907.598808 -55.82491001 26.81751945)
(1895.581978 19.97683857 2.804954251)
(1905.952422 43.41068049 8.578206737)
(1928.924607 15.38652058 1.941495918)
(1937.944642 -5.372157154 -30.0946321)
(1927.107229 -12.39189242 -9.108030677)
(1962.166333 22.4604731 -43.26329159)
(1944.200554 -6.705078159 -10.8638843)
(1928.94859 2.373360793 -8.53948038)
(1927.526631 3.704243969 23.7512315)
(1916.039623 13.04297195 28.81996354)
(1959.019663 -13.79116296 9.122073017)
(1972.999583 -21.03021076 0.5579788657)
(1963.725651 -11.40172346 11.03981105)
(1957.959267 23.5038889 28.36786524)
(1947.511722 -12.95307065 29.56061191)
(1936.974356 -31.74900365 25.9873589)
(1948.612254 -13.78492228 20.47176978)
(1948.577458 -26.49536255 6.870589941)
(1941.100368 -3.865069189 1.894125493)
(1958.18072 3.127697763 -18.47196939)
(1951.711528 0.3910760508 -2.97525269)
(1933.029533 -8.426238204 0.364097081)
(1916.489487 -21.83694866 15.32868899)
(1936.698921 -16.6071381 7.004199892)
(1951.258537 9.874031968 -26.27707673)
(1954.941186 -44.1348666 -1.245821515)
(1944.634247 -36.28271579 17.09576449)
(1942.578119 -69.39594144 10.85985639)
(1938.160621 -54.13138558 -3.555567256)
(1942.042852 -32.06114915 -10.27073782)
(1961.015149 -19.23368528 10.13412238)
(1937.064206 9.642002381 6.006457711)
(1942.134928 2.776699147 -6.138268356)
(1946.673536 27.7204329 -2.940031284)
(1928.070434 20.03935104 11.29114466)
(1922.287003 3.05981137 -21.54836577)
(1944.531294 -8.952008621 -35.44579444)
(1943.292285 -3.021983689 -4.935580765)
(1955.873879 5.759794843 6.985099949)
(1934.190179 -30.41301337 3.001025442)
(1939.177497 -13.36451546 23.88646939)
(1913.128382 -38.94576618 -11.73130866)
(1910.901943 -15.30394946 -9.502980005)
(1959.761682 -25.87999931 -24.22147171)
(1939.615104 -46.47107605 -18.86310554)
(1910.238168 -20.47413702 8.684355686)
(1900.417807 -3.831854247 -7.281144082)
(1919.507501 21.45225602 -12.81758462)
(1952.432728 18.44195615 -22.71818174)
(1948.966656 -2.811346544 -16.28327557)
(1953.32941 -10.50722476 -25.40112622)
(1941.209901 -7.784292772 -7.486763013)
(1960.272004 -22.42662843 -29.75145013)
(1931.160773 -39.02435754 -8.212670773)
(1917.387756 -27.99691016 -14.6973895)
(1927.416998 -30.44893183 17.53610011)
(1914.148984 0.5286204225 33.25981688)
(1937.190984 3.174070458 21.61516167)
(1957.145465 8.48477722 36.58429666)
(1950.273002 -22.57336633 61.85031557)
(1953.898382 -22.82595278 42.28191354)
(1958.752525 -5.465726005 -0.4732470732)
(1950.29464 -7.107038723 12.38109888)
(1953.285082 24.05941883 12.16019234)
(1921.500226 -7.180038488 11.90869486)
(1965.473989 -8.877298372 -12.69787423)
(1931.23587 -24.87309226 17.33561146)
(1927.939386 -9.273159419 28.54281144)
(1941.494619 -9.635396573 21.6543896)
(1963.622767 -24.90145076 -11.27583531)
(1960.085199 -49.65627942 3.600028028)
(1969.765671 -62.9487124 31.77156036)
(1955.741329 -3.353433401 29.60058034)
(1976.34052 -7.401084938 32.92276616)
(1926.153459 -15.57281583 41.73521405)
(1925.318655 -8.322016455 18.50971572)
(1934.01964 -44.44376417 -8.239254345)
(1940.640416 -35.96692503 0.4032382066)
(1946.870011 -45.61855242 18.27001234)
(1967.400826 -16.36062213 22.24643288)
(1955.461209 9.310356255 10.1777494)
(1913.618307 15.17566505 2.723947723)
(1933.174933 -8.075051042 4.350106763)
(1965.535556 -11.77452612 11.68420911)
(1978.365079 -0.3424679101 -0.8746141939)
(1893.955586 54.73726626 37.88101807)
(1889.315468 30.04240432 19.94689523)
(1900.335779 -8.396326239 2.315641845)
(1900.188581 -13.50362205 18.78588821)
(1889.333827 16.19320309 18.25035465)
(1908.514936 14.25572087 37.45224411)
(1925.243646 18.00349241 26.06131739)
(1918.441271 -3.910110481 -3.621571945)
(1927.603821 -21.66302401 -12.36062727)
(1942.273784 -8.723884035 8.595051225)
(1961.739046 -36.06532761 26.83260561)
(1958.296396 -19.9198685 31.08794897)
(1942.442029 -22.17540366 12.41377333)
(1933.125565 -17.08896056 32.63554519)
(1938.21065 -11.30511509 51.32083831)
(1953.751031 5.994427705 28.46442138)
(1936.425871 -30.72157782 12.10591371)
(1916.28308 14.47080244 29.69965119)
(1918.444796 5.82581581 33.49888621)
(1891.786695 37.45225827 38.81652857)
(1949.178527 17.23526072 -15.8338263)
(1902.476592 24.00086872 0.6405847409)
(1898.77727 41.2899196 -21.69999761)
(1910.308915 41.69619399 -36.23425884)
(1913.576942 11.78554421 -24.58089356)
(1903.321011 15.98843363 12.95025501)
(1929.036467 -27.5660495 24.23330787)
(1931.424114 -28.34653939 16.13548951)
(1927.456027 22.15099369 17.80426264)
(1918.143609 31.26417251 1.576668037)
(1908.057431 -3.309885205 -32.89599878)
(1941.251756 8.161822929 -24.3938738)
(1949.332514 -29.11469784 -17.67404915)
(1938.245487 -17.15930955 -30.36896333)
(1963.443788 -8.062681909 -29.72014724)
(1950.673204 -7.643666094 11.46813205)
(1927.992024 16.63547398 51.88946054)
(1919.908975 5.117642988 30.72875897)
(1921.647689 -8.902238172 14.80719497)
(1947.809822 -23.8306309 -19.28713395)
(1951.09972 16.15790776 28.93434164)
(1928.309695 9.95308135 27.05361609)
(1927.97899 11.91354057 12.28118241)
(1909.369909 17.50746691 27.23018472)
(1912.478741 -9.487790425 22.01702321)
(1933.276567 -2.105678675 29.72570993)
(1934.054519 9.936243952 35.43279083)
(1931.063459 23.86484458 22.32990661)
(1953.659707 9.607912901 16.68067682)
(1975.683862 -8.660565133 9.915227707)
(1969.427043 -14.81534048 -31.54286217)
(1972.090105 -20.70413808 -16.09934141)
(1949.658252 -24.39071651 29.72483266)
(1940.896733 -5.186649357 54.15502444)
(1925.87666 -27.49788967 25.64765024)
(1909.937115 -48.05844871 -7.222440131)
(1914.988539 -26.77132949 6.254607865)
(1946.395814 -18.45358957 1.945415043)
(1987.677726 49.23776769 29.47613829)
(2000.148019 34.69650455 11.37615868)
(1970.581505 -16.00341391 16.58723295)
(1988.695886 11.01855041 20.44208961)
(1978.13406 -5.006854533 5.756855846)
(1960.704743 -11.36086668 -35.05656026)
(1950.387173 -1.346696341 -22.4096362)
(1942.99345 1.135820237 2.240411704)
(1930.849075 29.48330279 20.88226757)
(1918.93841 38.15936366 17.73899133)
(1901.83387 6.364771979 30.06057204)
(1917.390924 -14.18531512 35.62237618)
(1919.409273 -0.72387275 12.37589755)
(1928.297052 -0.3732835971 14.12440321)
(1941.780519 60.46246383 -5.088808278)
(1963.18565 42.76014168 -23.05134834)
(1963.379995 29.87430708 3.907902937)
(1949.923697 60.77450697 13.62913326)
(1922.981048 63.13731312 -16.13157841)
(1945.106502 63.78360758 -37.79890743)
(1943.645511 21.48030644 -26.81359659)
(1942.287395 -1.128311516 7.163186656)
(1943.848067 -16.86329476 15.12827453)
(1960.574146 -5.41677944 16.10151548)
(1958.583985 -12.97622606 -1.181567214)
(1969.242488 -8.419851783 -9.005982307)
(1984.767042 -6.850299421 -23.3313789)
(1963.338904 8.971932487 4.452743084)
(1967.280552 -42.77258834 5.595431337)
(1937.529898 -29.06812185 -9.909161815)
(1926.478488 -3.020246827 -11.42940969)
(1934.400294 32.76094347 5.438872632)
(1933.352413 45.43445929 20.40914191)
(1942.479042 31.67248757 29.42982265)
(1921.608091 -5.789436829 -0.2353070681)
(1908.752962 4.622451971 -11.45888584)
(1934.025918 -0.5473101013 -23.3384177)
(1962.814152 1.4901937 -39.24533079)
(1986.503196 -4.407886182 -27.07831508)
(1965.008537 22.6194901 -3.334163528)
(1950.830234 60.40998214 8.777227368)
(1931.757484 39.48973223 19.77569707)
(1926.974528 31.56726422 -34.8248443)
(1927.86967 8.694251956 -17.96117059)
(1960.531796 8.564268364 -8.370576186)
(1962.476499 -6.641886938 8.914629556)
(1952.981456 9.758709858 11.8080433)
(1937.769885 0.1153198799 -3.129080171)
(1948.812776 11.12614558 -0.9052888483)
(1951.825257 0.3590576508 1.812942066)
(1924.747197 33.29842908 15.86482767)
(1908.881248 7.12186164 10.35184367)
(1909.497411 -9.815301312 24.86102519)
(1938.591816 -14.48007377 8.766364218)
(1911.432232 26.78325109 -18.83450186)
(1914.856224 60.08686635 -8.287774489)
(1910.973551 36.22389437 14.42468481)
(1919.05905 25.69936314 6.284339524)
(1927.149591 28.57036439 -32.25074337)
(1953.430886 29.76652149 -18.6041443)
(1959.248119 25.20166877 -24.8305224)
(1929.569208 20.2291758 -35.24945)
(1973.149549 14.19336257 -17.23965872)
(1969.176665 19.87205206 -2.66767473)
(1969.865717 31.38559153 9.77551428)
(1979.161755 48.62354384 51.23415232)
(1992.752839 16.40162747 46.43159503)
(1977.49272 3.290910613 51.69281932)
(1961.580471 -7.636421281 26.64516696)
(1951.14729 5.596748088 21.65579611)
(1971.327508 9.354517595 -17.43697985)
(1976.460049 34.5141288 -13.24927399)
(1968.369362 21.52673248 -48.23278549)
(1970.163181 18.67027127 -25.98796349)
(1966.570435 8.961342338 -31.99456432)
(1940.775421 -2.180632628 6.176920746)
(1951.475927 -3.077415312 -29.17635959)
(1964.841548 28.31997542 3.11761396)
(1954.866441 2.902607275 -5.461381473)
(1953.543637 1.1166033 -18.64398729)
(1972.361944 -10.72276827 -14.92532459)
(1978.002334 -26.3253169 -31.57463834)
(1915.215207 17.38244758 -10.36105414)
(1941.577489 6.817484929 -0.2067838105)
(1980.098853 -8.398799657 3.129939062)
(1962.223284 6.825968816 11.78477042)
(1931.574748 -3.405666841 9.252342571)
(1951.595013 21.59273109 -30.17227196)
(1974.800537 31.47544909 -23.51021988)
(1977.062841 -9.09178783 17.25178715)
(1963.245189 35.96642733 49.5320142)
(1958.690468 39.66803739 20.82814928)
(1971.528438 43.40375474 -31.30403562)
(1978.494436 27.15906077 27.33417023)
(1963.135937 19.30973812 -8.21436808)
(1964.201523 17.22187673 4.381594985)
(1968.386559 49.63503931 -34.27583952)
(1958.563011 0.1465086464 -32.42884223)
(1964.386864 3.982672471 -19.45150889)
(1980.357673 45.14825218 -25.22418839)
(1945.415209 43.56155141 -31.09734304)
(1941.300536 1.858587517 -42.48676127)
(1919.71306 41.28894313 34.0565073)
(1923.607581 31.00618123 23.22672048)
(1915.063854 0.3075672084 -13.8601713)
(1916.736604 -38.36163515 -24.85707819)
(1937.262019 -22.56771438 -62.36485146)
(1946.228712 -30.27475738 -59.19836982)
(1930.823077 -6.867505911 -63.51803938)
(1933.612873 26.48489401 -34.43361291)
(1969.23808 49.46774733 -24.15948198)
(1952.888179 25.30557403 21.58859646)
(1950.780115 7.899522659 37.57737469)
(1974.123523 -9.255684617 34.53844846)
(1978.979135 -6.79089493 28.51555203)
(1968.238796 11.944028 28.37545266)
(1947.455237 -14.29144199 18.59368825)
(1948.505916 19.06011771 70.22250276)
(1934.635594 5.061696804 18.0241894)
(1934.615572 -29.72163629 -14.32135635)
(1929.545719 -8.19915388 15.006199)
(1923.538993 14.67719314 23.27214429)
(1963.977888 14.62617455 22.29137575)
(1960.558831 21.46167801 19.47834801)
(1934.806475 4.22364973 7.703026373)
(1912.194325 12.99755456 30.75632766)
(1911.321783 -6.971590488 10.00352067)
(1913.883737 17.66734159 -28.4092973)
(1916.057392 4.299739836 -58.08270716)
(1917.065561 -11.08770367 -44.81480379)
(1937.026344 -22.14653771 -22.6336715)
(1956.176646 -37.84319065 -26.15986211)
(1961.05514 -1.568798485 -63.8439318)
(1944.428195 -5.53625196 -42.82280343)
(1953.095318 -18.91805524 -12.97871468)
(1949.026304 -33.44991342 5.270177558)
(1935.402093 -10.86022935 13.30841969)
(1961.186728 -37.37000475 3.979600556)
(1922.058424 -23.41465292 -3.888070237)
(1913.151884 -7.610623505 -1.325519491)
(1925.083379 15.30108779 20.86505752)
(1956.929509 22.53105005 49.52353626)
(1939.725346 -38.57241629 -16.51746619)
(1945.53407 -63.71955077 -10.87381096)
(1922.804084 -72.3242699 -15.35290735)
(1930.349771 -51.69724292 0.3205527842)
(1960.940653 -28.54813361 11.89997787)
(1956.755873 0.143258424 9.304303063)
(1931.8724 23.48563297 -4.730341986)
(1906.152647 30.85629196 -0.6807332914)
(1938.28741 29.90214771 -2.012835616)
(1956.611525 35.23990368 17.19327377)
(1991.490441 -20.13218544 -2.525110256)
(1994.495142 -15.45174556 9.367380221)
(1929.82885 -11.13125788 28.49404597)
(1905.061227 -43.32895061 20.8785218)
(1918.748891 -39.75525681 5.292156858)
(1922.828469 -29.04104695 -24.418397)
(1937.510747 -14.0522898 4.181818755)
(1924.457622 -29.86861726 24.46442505)
(1917.658435 -38.19334564 -1.249320948)
(1907.02335 -32.39819044 6.235283131)
(1915.357341 -51.46339601 44.60214757)
(1917.922349 -50.63941993 16.4891265)
(1913.597392 -31.05207489 -32.3269235)
(1939.497663 -41.25052509 -25.62628962)
(1979.738803 2.393461263 -9.894225413)
(1978.01464 -23.34582149 -18.77336736)
(1970.608526 28.86030072 -9.500850764)
(1983.059598 46.62895734 8.664853763)
(1974.67076 29.53139274 16.78632974)
(1945.730945 -1.357482975 22.57915914)
(1918.184063 23.66267647 21.41300206)
(1945.788845 -0.3478049661 18.8100495)
(1939.069948 11.33454948 14.44420141)
(1958.064341 -0.3383677484 -2.33722161)
(1950.212381 8.449338266 -3.131509687)
(1935.312723 -12.55911635 -23.85755493)
(1962.917461 -16.18761212 -29.82530509)
(1972.416928 -19.37467734 -16.40264454)
(1952.385888 -15.18035761 7.057184329)
(1934.457789 -25.84096626 21.21995275)
(1960.206875 -26.17991715 19.84249419)
(1981.865869 -3.319295223 24.33494258)
(1994.048638 -6.498908478 0.1013514168)
(1987.257959 -26.65558493 -22.48547204)
(1948.398403 11.00711078 -6.86004461)
(1946.876789 24.48585093 21.39823792)
(1958.588515 35.25105171 8.3851219)
(1953.159849 19.07015836 19.96476991)
(1975.501919 32.60539094 -5.336277438)
(1991.457928 41.71114937 26.84861113)
(1976.713907 35.29273775 16.37555643)
(1946.505482 28.89934095 -1.136970246)
(1929.669127 -3.824448456 -17.02676116)
(1972.966819 -9.983826001 9.048629014)
(1974.691386 -22.87712187 19.11086205)
(1981.995789 -15.93958741 22.18166935)
(1978.994767 1.782460531 36.62099013)
(1997.40015 -19.99449233 25.41078054)
(1995.799011 -27.54632984 58.22190213)
(1981.747022 -36.73740202 47.05780496)
(1890.150741 -9.581526803 -27.67301607)
(1916.118414 -26.34382699 -26.90959425)
(1957.731353 -14.52378212 -4.419575806)
(1980.777341 -29.74876571 25.80235007)
(1964.973013 -37.29363602 12.35305513)
(1949.577486 -9.948124143 -5.435068994)
(1948.807682 -2.719141457 -6.459635451)
(1925.860518 10.42111814 15.23381467)
(1923.529536 2.160711426 12.23567364)
(1910.637283 22.02516001 -14.79892629)
(1908.779143 17.3429486 -2.639822338)
(1925.65149 17.56925804 23.12187285)
(1918.075738 42.19107922 21.81713833)
(1876.77727 12.32736718 23.48400048)
(1894.6314 -4.161613009 20.92949544)
(1894.528156 22.3804506 35.75454756)
(1917.806745 12.72624466 -0.91047175)
(1898.648966 4.137202884 28.04900146)
(1888.716079 -0.9113473751 9.560447271)
(1876.937253 -12.45094284 -39.93559925)
(1956.557272 44.29940248 -10.17063767)
(1990.166304 24.11291713 -21.7794919)
(1973.095521 -1.355604728 4.115160131)
(1947.857085 31.13610976 -1.282598736)
(1930.699227 11.83805322 8.631248647)
(1930.939767 -7.548502005 7.062947993)
(1938.732599 -27.20802279 20.69451029)
(1935.952713 -36.08193781 23.71713735)
(1948.94343 -25.95704388 20.2548258)
(1950.328891 -18.46690548 21.31893626)
(1933.453196 16.48580361 -2.203770819)
(1939.101562 -5.831579622 32.05216796)
(1924.637448 -32.34657682 25.74556797)
(1920.732036 10.90733521 20.30855836)
(1914.441763 45.93997015 -1.811079783)
(1904.190224 38.53792888 0.3449736283)
(1911.841441 6.241045029 3.678344366)
(1937.826442 -17.10093957 17.30506684)
(1938.037104 6.051101133 21.50491332)
(1946.767358 21.11007539 0.8311070434)
(1977.652737 22.79702625 22.00689645)
(1974.316714 31.05572219 22.75515312)
(1950.890123 34.14126784 26.14440858)
(1939.772639 38.3152011 45.06156713)
(1951.102325 0.4642601913 52.45571223)
(1933.229322 25.2027317 38.61047957)
(1918.896652 23.48702213 23.49164626)
(1903.441658 -5.549083103 -4.130542651)
(1893.176032 7.179922025 20.89160374)
(1910.123733 -21.43840607 -3.711756246)
(1908.102533 -19.95111199 -12.87758685)
(1892.14442 2.907956669 16.46320045)
(1886.560218 27.25467778 -0.3978018485)
(1887.708088 -9.169900267 -22.03362929)
(1939.608063 -24.13731408 13.06574301)
(1979.842596 -7.779626263 13.46313961)
(1943.032667 10.476285 5.352377665)
(1932.937278 39.26258362 10.2074986)
(1943.468295 53.92460066 7.453735194)
(1953.840368 38.23402977 12.45184555)
(1921.158631 6.792078287 -46.03948237)
(1916.4548 -1.569767404 -28.84581956)
(1929.466022 -1.796556415 -6.635453592)
(1930.422973 -5.733802613 -25.99871101)
(1909.184754 4.123094405 -5.174750594)
(1897.793674 -1.472005184 -57.06074658)
(1921.695375 19.34309417 -62.94462216)
(1932.035342 38.6257375 3.351932862)
(1949.370019 38.97333538 -2.816822812)
(1928.205707 30.99778463 18.69244711)
(1923.505983 10.16037568 21.30592331)
(1934.957199 -11.40615077 23.67663548)
(1940.240826 -26.51113579 3.398273378)
(1959.394132 -24.70667766 54.54660657)
(1936.880354 -1.712735372 33.56844018)
(1924.095418 7.299413647 56.03280612)
(1935.964792 22.0781934 5.241965253)
(1912.751624 27.65773454 -4.675598474)
(1943.33332 21.09928786 6.217595389)
(1951.006548 4.032967495 -7.711726476)
(1940.538417 20.72139058 -2.767632062)
(1958.588909 21.23336061 -25.28558199)
(1945.066503 -9.932541635 -11.84887982)
(1913.911142 -4.580667164 -15.24306189)
(1937.518145 4.245722245 -14.38504396)
(1970.76029 -10.9549156 15.76085033)
(1977.044835 4.241991672 0.02060723107)
(2009.226954 -11.30836952 13.37247439)
(1985.399381 -6.83485732 24.2058742)
(1980.856391 7.61356849 49.15116228)
(1987.35656 44.62656726 27.52951093)
(1990.940488 37.23325128 39.80958067)
(1955.642771 8.175917724 33.80239384)
(1952.121218 -0.8865343603 -0.7765312354)
(1951.455926 0.7471597436 -2.614931291)
(1957.95244 14.25199377 13.37068962)
(1962.119067 49.64123157 35.23423431)
(1959.7306 55.08652762 80.7995174)
(1939.876453 39.56164173 55.67857607)
(1940.73111 29.79683144 57.75142573)
(1872.603089 22.16456623 -7.422203767)
(1887.96817 15.89845932 -11.35821226)
(1875.050908 51.40340552 -14.75649049)
(1903.329882 22.32630022 -36.71734115)
(1906.215361 8.217583342 -41.55328947)
(1909.231774 38.11368243 -38.98969194)
(1925.791794 25.98472823 -40.63184141)
(1931.471515 61.3541173 -38.87765606)
(1931.771723 62.12875313 -26.31411541)
(1974.507151 16.86003851 -1.595404829)
(1948.366963 -10.85821276 5.039132405)
(1931.371847 -37.16069628 -19.61787575)
(1935.152314 19.8977424 -2.607589782)
(1933.683542 23.48981434 -46.52403298)
(1930.885739 19.93026504 -12.69981153)
(1945.492812 16.14310697 -1.648726057)
(1946.632766 0.5281117015 -1.850294208)
(1935.108395 24.42232133 17.53016708)
(1901.95254 15.92291742 3.96357452)
(1870.25189 16.08778705 -19.10979908)
(1951.537429 54.16024166 -20.51275606)
(1938.879167 45.24202983 -14.26208828)
(1965.737885 -3.42293281 -9.698539303)
(1955.452181 -30.89413347 0.9545433638)
(1934.032175 -1.612770276 23.30493686)
(1942.087435 -5.122042367 17.60507289)
(1928.198701 -2.902683066 -8.06223807)
(1938.17628 6.363877859 13.37492711)
(1964.029394 10.66252849 12.42926298)
(1934.368324 38.78405682 -6.944413918)
(1929.925289 26.33973704 17.07531521)
(1931.042165 18.65863693 14.88542621)
(1941.027947 3.528341473 24.60121355)
(1937.980357 29.3602463 40.60490667)
(1946.063162 2.262013916 45.91304595)
(1937.007663 0.9680372683 20.12343447)
(1939.715454 11.88165529 14.2323159)
(1956.483069 -2.754005362 28.20321606)
(1977.237916 -2.314497768 15.42138779)
(1958.143345 1.184161172 -8.473440682)
(1963.185894 -5.298545147 30.9912598)
(1939.373398 -7.001003035 46.68422049)
(1917.984357 2.858340113 36.23653394)
(1945.0937 14.85600815 4.33237001)
(1931.272396 -43.92588741 37.83606694)
(1941.580513 -35.9892249 47.72501615)
(1953.486021 3.755527543 29.33234275)
(1979.925373 7.58380695 22.58602968)
(1978.374439 -1.155360433 -8.835690545)
(1987.213887 9.785841191 -15.74466052)
(1972.167379 29.08946181 -25.97259311)
(1957.607531 30.03608332 -12.84123936)
(1962.121183 29.30652624 11.40963281)
(1964.612285 8.502464789 18.55691599)
(1959.732194 31.13782337 26.42474811)
(1959.490295 32.39779449 10.31129747)
(1953.826088 25.69084276 3.708034567)
(1980.48971 22.25475765 2.455213971)
(1983.427248 0.316855132 12.16148171)
(1965.750687 4.622934886 33.86595997)
(1925.876802 -21.16325424 -9.73406612)
(1947.420024 -49.00221544 2.359020891)
(1980.446448 -9.08048766 -0.7910597419)
(2008.845413 22.30909129 8.870233155)
(1977.108931 51.64384913 -7.470159831)
(1959.487081 73.81953108 -7.152956499)
(1939.106362 80.06790846 9.504915335)
(1923.214714 56.70827842 -4.335157659)
(1909.123257 28.20630791 15.55053109)
(1933.869511 9.72896119 -7.385839161)
(1946.931762 2.843038636 -5.379337561)
(1932.153478 1.206760665 3.973333746)
(1969.146756 15.59841895 3.070661137)
(1978.141741 12.51521565 -2.461614814)
(1993.19268 4.504599116 -24.84769079)
(2000.312796 19.91827372 7.878219488)
(1960.814863 6.640831315 14.86620506)
(1947.908348 27.8031819 11.75147626)
(1921.737436 35.83154342 -4.781625353)
(1931.59404 11.01959028 1.645613388)
(1927.763273 42.44186445 -19.27203453)
(1938.093671 40.31140528 -20.14450898)
(1937.720598 64.82587815 -29.40678185)
(1916.720961 46.61593742 -22.85873252)
(1924.689363 17.2296475 11.66166447)
(1915.848156 2.932186144 -13.11162022)
(1924.518948 -14.29526421 -23.01135628)
(1916.872716 -34.83495099 -34.31853645)
(1947.85868 -23.34729405 -27.5724592)
(1945.314557 17.188095 -22.90023529)
(1960.322807 4.401853341 -6.337049048)
(1960.068434 -4.401099061 7.705379341)
(1943.247989 -27.17317558 -17.43331077)
(1930.471634 -56.34609258 -21.16764203)
(1927.235915 -52.63700532 -33.29475715)
(1920.411319 -42.09316571 -48.14448401)
(1911.85742 -7.909898235 -50.34458304)
(1907.764393 6.226531732 -16.79658534)
(1936.061056 48.44155374 2.990278377)
(1929.208053 30.82699321 16.86018374)
(1951.954884 -9.848885232 16.80826152)
(1968.492768 22.78852096 10.73017348)
(1951.69669 16.67574005 -2.87752828)
(1936.703901 0.3668418747 -19.20692751)
(1954.057575 -5.163081278 -14.15089312)
(1968.357657 0.6619720803 11.06547451)
(1961.841771 -4.800933216 14.47515775)
(1971.144861 12.66353327 -5.963908498)
(1949.398271 5.603619063 -9.628890766)
(1957.727184 -21.85509493 10.8051229)
(1962.174539 -37.21422567 9.730103962)
(1960.171601 -28.29286717 -12.25738347)
(1959.423871 -14.63789177 0.4126600291)
(1931.143895 -3.27749895 -4.40628409)
(1949.42304 -16.8875346 6.657778404)
(1965.048954 -30.93844832 -19.92987223)
(1966.290475 -24.06892209 -27.05404737)
(1943.694215 -27.08164822 -8.442230874)
(1959.146268 -29.52796946 11.29522748)
(1953.56429 -11.52475591 14.34190507)
(1928.290609 21.05269053 -21.05725666)
(1911.043082 23.06491062 -35.90885136)
(1896.945599 40.93310073 -31.40739723)
(1914.888976 11.50102655 -17.0667663)
(1951.908143 32.68799234 37.27163855)
(1955.573483 25.94265736 60.23520985)
(1974.645261 -14.99818976 81.39508452)
(1977.340946 4.609550162 48.13189267)
(1959.906914 -23.18353235 20.80223583)
(1959.088378 -29.79218186 25.42522429)
(1944.635278 -14.86345953 3.435109061)
(1958.692467 -30.11820337 -5.254508524)
(1962.614694 -58.80612675 -13.02660769)
(1965.410175 -54.86730627 -13.81931838)
(1951.948861 -47.50055666 -13.03369972)
(1949.423387 -39.12461423 -23.5678506)
(1939.975313 -17.18683613 1.448395093)
(1953.3766 25.18224255 13.65510164)
(1927.754307 47.22152637 8.087612254)
(1919.462358 28.58463123 -6.459603953)
(1946.156205 -11.79289599 -44.78237299)
(1965.593208 -17.56095463 -49.89620285)
(1972.178102 -30.56064417 -25.38314271)
(1982.294298 -20.614786 16.67398084)
(1977.49804 -23.88547082 19.61540587)
(2006.476299 -40.65263223 16.95800993)
(2010.743078 -27.41874965 42.30519194)
(2007.158166 8.684540186 25.37717926)
(2000.577615 -1.168627991 -1.808940704)
(1992.14774 -10.82213566 3.364485225)
(1973.963272 -31.40883054 2.961219985)
(1953.056829 -25.30944705 0.1642222455)
(1946.204456 -30.17147114 8.036087996)
(1948.428415 0.04362621519 9.22421978)
(1939.805414 -16.62345416 -1.935818191)
(1949.775431 -62.31727808 6.408457224)
(1943.35806 -30.06190257 14.90350934)
(1887.416779 -6.790489322 21.09161689)
(1906.51057 -14.59625204 14.89658342)
(1927.757859 -4.049900555 -32.47305)
(1974.151601 -11.60916986 1.911067424)
(1939.57852 11.58336017 -4.660587203)
(1941.439831 9.261527098 28.82310633)
(1941.615116 19.43868218 33.87001138)
(1947.648898 17.49559208 19.02991378)
(1947.307327 -1.362465246 19.52474763)
(1934.674772 -19.32497665 -4.476638255)
(1930.889135 -22.95418057 -10.01474849)
(1948.643265 -16.65970745 10.59050806)
(1978.173569 -16.12926059 19.15559729)
(1961.063998 -33.57384505 54.09337674)
(1989.655028 11.384928 45.20286014)
(1999.576494 -31.95412611 27.98721611)