/*--------------------------------*- C++ -*----------------------------------*\
| =========                 |                                                 |
| \\      /  F ield         | OpenFOAM: The Open Source CFD Toolbox           |
|  \\    /   O peration     | Version:  2.4.0-MNF                             |
|   \\  /    A nd           | Web:      www.OpenFOAM.org                      |
|    \\/     M anipulation  |                                                 |
\*---------------------------------------------------------------------------*/
FoamFile
{
    version     2.0;
    format      ascii;
    class       volVectorField;
    location    "0.0009";
    object      UMean_mixture;
}
// * * * * * * * * * * * * * * * * * * * * * * * * * * * * * * * * * * * * * //

dimensions      [0 1 -1 0 0 0 0];

internalField   nonuniform List<vector> 
5120
(
(1947.118526 12.36003911 15.01188601)
(1940.03001 0.5832213631 28.04942172)
(1924.016188 9.175263856 42.01218498)
(1932.354672 -12.78237721 9.429048776)
(1928.277137 -15.70007607 7.865591641)
(1933.71939 -6.934161958 6.530560121)
(1941.765197 3.180423497 9.016414779)
(1951.61289 2.858775709 23.70276453)
(1958.415348 0.7210779763 17.25863766)
(1946.271103 -0.3238126967 15.04994514)
(1949.472743 -5.682149973 7.276419425)
(1957.200247 -15.02836827 7.384872349)
(1976.427463 -13.76675496 7.271680142)
(1967.910686 -10.23493585 12.33335531)
(1957.550523 4.924873235 12.03138636)
(1954.20117 18.49611204 7.693298541)
(1965.680764 14.57123764 6.962808777)
(1962.375141 25.09084813 -2.650112608)
(1952.986029 17.68624246 2.762283996)
(1955.874931 5.969725592 5.485225194)
(1934.114865 5.399981401 -6.687836094)
(1940.432294 -2.671980323 -3.259962085)
(1935.544625 -5.833900527 5.552510683)
(1940.339421 -12.32646202 3.790946334)
(1942.961186 -9.162625139 0.6543093015)
(1948.069038 -0.3488151396 -13.69422401)
(1950.471841 7.896792197 0.5284858569)
(1946.637028 9.871581183 -6.940927087)
(1939.293261 11.35326463 -17.39139578)
(1937.574235 7.193086211 -15.42153238)
(1934.359642 14.69251513 -16.59356156)
(1942.686154 9.930654362 -0.09483149586)
(1935.488761 0.1064603138 2.172225946)
(1947.24513 4.765175003 10.10903644)
(1953.384863 -0.5654191778 25.3432858)
(1951.581824 -5.956712068 3.553643807)
(1959.521385 11.93025018 -0.4016948507)
(1961.713483 -3.471473139 -6.444109143)
(1950.31383 -9.081960062 -7.407305759)
(1937.341814 10.64650479 -15.63418721)
(1950.495474 -0.9888589055 -17.10475834)
(1939.722899 10.35199885 -3.62367824)
(1932.229073 7.557900679 15.1270109)
(1941.42664 3.246898137 -0.8848612854)
(1948.828232 13.66365787 -1.836962031)
(1941.481026 4.630253453 -8.5897462)
(1939.866455 18.68668588 -0.03827649298)
(1946.959604 14.2630708 1.091978992)
(1949.68095 18.96523979 4.842734146)
(1951.561254 14.04788898 3.994079091)
(1950.641426 9.517095399 -0.06427758648)
(1950.737015 13.85316914 -0.9595097614)
(1946.082567 17.16976868 0.5730064641)
(1942.43436 9.699953516 -0.6725227197)
(1931.15189 6.947444292 -3.05053255)
(1921.529323 14.7244804 -12.43079073)
(1924.552653 -2.54262462 -17.7182129)
(1936.864203 -13.55415319 -13.1663262)
(1943.573709 -10.97658466 -10.66232062)
(1924.718805 0.1826265338 -21.85575496)
(1941.032233 0.9815509048 -27.01681979)
(1939.968696 17.59360817 -10.25513427)
(1950.289716 21.59591592 -21.56295588)
(1947.482404 19.91053599 -18.85242423)
(1956.845289 17.76780335 -21.20549169)
(1967.508401 24.99444369 -20.7711882)
(1952.664882 9.722910183 -26.39912716)
(1951.280784 5.352931832 -11.51816003)
(1946.485643 6.136954201 1.041757731)
(1930.382648 6.721717065 -10.64433845)
(1939.818688 10.79566545 -4.673738858)
(1942.606895 -0.1323645907 13.34652122)
(1934.023003 0.6738456553 14.1086961)
(1942.067902 2.913356156 9.559817347)
(1937.56725 6.843390917 -4.233070315)
(1936.491905 4.856225735 -9.088819612)
(1917.861043 10.15284094 -11.58037013)
(1930.291014 13.55362084 -3.543158236)
(1942.214447 10.72085505 -5.42593213)
(1951.83184 -4.486812267 -0.9593314152)
(1934.65054 -3.613744503 -2.301998343)
(1941.425054 0.04802617915 -11.36897607)
(1952.987571 3.34279028 -7.28335579)
(1946.756204 4.058044754 2.189783911)
(1959.53052 2.578877336 -8.617958016)
(1972.145329 3.326286844 -2.222467639)
(1960.775581 6.657040782 5.115452247)
(1935.517209 10.72829403 3.066820263)
(1939.450618 9.825668219 9.42185563)
(1941.2752 6.426141156 -3.565311853)
(1953.562469 5.546722782 0.1786701313)
(1964.063763 1.663542457 3.023033256)
(1942.783632 17.18861468 7.060046354)
(1934.541689 15.76756433 1.524811841)
(1944.933735 19.04034878 -1.373227082)
(1948.879219 15.83079656 -0.8635176797)
(1955.336491 17.03920451 -4.232255722)
(1959.174577 -3.601414906 -7.807664962)
(1956.660675 -8.531147561 -8.875242161)
(1935.190183 -4.43330014 -6.054369151)
(1958.117518 15.07326416 8.1063984)
(1960.56898 18.05316289 9.018703129)
(1952.289352 12.48570386 13.56974042)
(1951.393927 10.92172486 10.7840461)
(1957.153233 5.441382593 -2.940058488)
(1947.070495 -8.710220126 -9.285168773)
(1947.32689 0.3313866136 -34.2833131)
(1948.140213 4.776000599 -30.79522541)
(1943.720174 14.33387777 -32.14051451)
(1941.741276 11.26756767 -12.26004394)
(1942.76444 8.039605209 17.445514)
(1943.402266 -1.168563092 19.08522925)
(1948.689145 6.730904961 5.520443527)
(1954.078495 4.330745565 -0.9358438206)
(1941.068452 11.10950136 -5.300398668)
(1943.68329 4.214360792 7.785722024)
(1938.65207 -13.46492502 22.97582164)
(1931.98315 1.771003366 16.67348566)
(1936.095212 21.14552219 1.25973387)
(1950.721188 13.05241386 6.222025397)
(1938.417834 18.32197749 -13.85436793)
(1945.411982 21.4884334 -22.49309567)
(1945.021998 18.05583866 -1.892402613)
(1938.80471 12.97549233 -12.07046456)
(1933.726133 15.57601982 -18.58893544)
(1936.466539 34.46041925 -17.44206108)
(1934.637266 8.544364639 -20.45024629)
(1937.74893 7.677559591 -29.25239003)
(1933.038297 4.464794799 -14.87471954)
(1928.368057 3.256485887 -3.751589648)
(1931.945578 9.659908185 6.202618513)
(1930.995544 10.11730444 21.8473038)
(1936.433547 15.02329146 20.39219037)
(1936.427575 -2.140805551 7.243955031)
(1938.910104 -8.137498496 -6.67818822)
(1933.379019 3.393376293 -10.43517722)
(1936.585174 11.95288847 -10.18668647)
(1949.726973 8.093897309 -5.194801011)
(1955.875939 -11.46398558 -8.25913066)
(1946.732664 -8.087967501 -7.939915374)
(1949.470007 -4.335962804 -10.72905516)
(1942.374852 -7.668020744 -2.127534785)
(1929.507037 -11.01322938 -4.835000745)
(1933.16382 -8.347207864 0.205914464)
(1933.009675 -13.59156254 -1.941254439)
(1941.264524 -11.11617957 -11.8107892)
(1937.115475 -6.126219606 -20.54412336)
(1940.57803 5.648151755 -4.807099928)
(1953.289599 21.13497213 11.69925796)
(1948.164449 9.257274146 14.69465846)
(1935.343209 6.953736996 11.54571614)
(1946.881212 14.74021911 11.59589642)
(1946.102226 10.29055537 15.50976869)
(1946.211073 17.96152691 24.52960824)
(1957.628009 9.586150331 23.0574342)
(1956.45764 10.30716879 24.02551291)
(1942.338263 3.559774722 13.01268338)
(1944.179554 -0.3389792007 12.73230342)
(1955.171627 2.06808096 4.287043849)
(1956.904016 11.94445018 -7.048945127)
(1958.030834 10.0659411 11.44464507)
(1953.292698 9.509781968 6.112755429)
(1954.474922 -14.7202068 6.685691414)
(1955.149519 -11.94309695 19.37338095)
(1953.84538 5.661069227 18.77753743)
(1948.007631 12.09406395 5.945569471)
(1948.078887 11.38591389 24.65698917)
(1963.517625 18.27058855 10.2295442)
(1939.333028 30.85994074 14.84410176)
(1926.721958 17.42292981 8.993830721)
(1931.020629 -2.603110268 0.5011691635)
(1945.653691 -13.27127851 -15.20065364)
(1959.284255 -9.036244782 2.462521911)
(1966.673332 -10.45223985 11.49202808)
(1962.582501 -33.03918531 5.812189866)
(1959.090958 -32.96277037 0.107939876)
(1959.247491 -17.42629652 6.301043652)
(1955.589813 -4.022407865 7.780238453)
(1961.917212 -10.4269066 4.774054102)
(1956.478643 1.707695185 5.056035354)
(1937.013624 -3.286931729 -6.068462132)
(1949.514121 -3.433129122 -3.071147567)
(1957.048265 5.907458656 3.071905018)
(1970.806229 10.82746579 -3.509872362)
(1963.19539 6.706720821 5.671041833)
(1960.187263 0.4554629936 11.07382647)
(1941.691636 10.34356214 20.64763527)
(1940.590783 -12.26100758 12.76956923)
(1936.136466 -21.95401528 11.83558483)
(1936.138859 -9.877709459 3.56832816)
(1945.532599 -6.413242695 15.19406433)
(1934.27528 8.966690963 10.86668359)
(1935.236276 5.274518045 9.456440426)
(1938.934323 -7.682795093 19.07288488)
(1933.370912 -2.558955456 34.51475946)
(1932.310181 -2.866388482 23.48747938)
(1935.70871 0.7608785232 13.90027477)
(1922.226147 18.08626795 10.08648451)
(1921.861524 25.04742939 5.784858963)
(1922.575975 1.461932026 -7.227905726)
(1937.55146 -11.86109343 -7.544618787)
(1943.635103 -0.1275494243 16.09215517)
(1948.233201 16.7687233 14.714826)
(1943.27176 7.060259744 16.15320742)
(1939.841432 7.584226684 8.794469845)
(1943.980361 6.735871012 6.939828134)
(1938.465611 -6.043843505 10.44469735)
(1937.998123 0.1896324519 14.22647848)
(1947.497076 -4.060401114 20.46466235)
(1925.23792 -18.96859951 12.35676096)
(1938.092027 -4.932786384 12.60285759)
(1935.774338 -24.27552175 -6.856691678)
(1942.194147 -23.9397235 -11.8773485)
(1952.009146 -21.85126338 -19.67327238)
(1955.597862 -6.230832213 2.371225731)
(1959.794323 12.64935307 -10.2959396)
(1953.815575 -1.920575796 -3.945878447)
(1954.662654 -10.04992775 12.36197785)
(1951.266468 -2.109341179 3.797725147)
(1929.236976 5.619264202 13.25585494)
(1923.74356 28.07533902 -15.19332372)
(1930.454801 7.470929023 -12.43760303)
(1936.213414 6.13065735 -22.34994903)
(1929.110228 8.842924104 -8.161428904)
(1931.985472 6.931186064 -2.637928419)
(1937.555725 3.043040255 -0.01659670408)
(1956.085877 -3.025647743 -15.82288578)
(1955.691955 -0.567257703 -15.04200893)
(1961.386643 -0.4691317418 -15.55465204)
(1968.507572 -12.05248527 0.8164448733)
(1962.266372 -25.14442347 21.50175209)
(1954.316454 -13.63605645 12.14929424)
(1947.468385 -13.91225646 -2.382379616)
(1953.936584 -11.46067072 2.342053172)
(1946.204062 -14.74600307 18.01009615)
(1964.63207 -16.36037019 15.8545303)
(1954.974765 -20.14017003 4.315081953)
(1934.836867 6.275881206 11.05684796)
(1938.896883 13.09781293 7.940399948)
(1927.13523 19.27002671 4.682184592)
(1941.319471 0.3548363451 11.0122456)
(1920.394495 4.936576375 11.62935561)
(1926.122171 10.17754945 -4.851319883)
(1935.180224 8.12887679 -2.003051398)
(1949.843729 9.804101648 -12.60396816)
(1942.492683 -8.044102059 -0.344617711)
(1943.764999 -22.66471269 -1.839609053)
(1959.80902 -10.83195664 6.082884243)
(1966.099837 -1.316832529 11.29577578)
(1956.544942 13.63890553 15.53031347)
(1948.557332 10.74800694 -10.29888095)
(1947.3292 -0.02803602442 11.05910765)
(1949.240406 -11.77870796 8.447018728)
(1946.725885 -9.026280843 2.629374554)
(1938.877653 2.958473216 -4.257541338)
(1937.215803 -2.199620025 4.9662252)
(1944.212851 -4.31487013 8.152965375)
(1947.147965 -22.32991247 -4.546969864)
(1949.703659 -12.24098903 -1.589283078)
(1949.234162 -4.681361019 -3.936060159)
(1935.817993 0.4796704457 9.216352366)
(1927.936153 11.57867668 -2.065975583)
(1932.12275 13.22228983 -7.998505014)
(1930.22385 -2.762189577 0.1500917331)
(1923.893488 10.05210726 5.52580876)
(1937.617414 16.08705758 11.88661495)
(1929.797554 16.08761213 32.85805128)
(1934.565165 12.82562314 31.49996047)
(1939.266309 -2.16719699 20.80633729)
(1950.892375 -29.89092823 8.879891807)
(1945.578838 -21.42860975 -8.446525071)
(1956.177644 -22.40109248 -0.4109486167)
(1949.905597 -12.94649174 7.421236226)
(1947.086907 -14.8632898 7.850060451)
(1943.28533 -21.84044765 6.975308218)
(1942.385914 -25.92294453 -3.612489071)
(1951.874456 -10.36391563 10.45247013)
(1959.998318 -8.190856176 6.588500372)
(1960.745641 7.582008074 7.896206055)
(1956.480656 9.953166352 2.190450975)
(1972.910852 -7.777305458 -5.963788758)
(1978.579672 -0.06467648339 4.271637847)
(1965.909795 4.672699215 -10.92867065)
(1967.023481 7.982695505 -16.25759062)
(1956.626123 12.35873387 -9.686315932)
(1950.216951 3.205046838 6.508384549)
(1940.423721 0.8710031022 10.02864332)
(1938.886791 0.5119877118 -2.524628529)
(1932.897337 0.771361979 15.58402484)
(1936.09018 6.931559309 15.0782957)
(1930.274564 0.5993006388 15.31599349)
(1940.500451 -10.06726814 6.751616251)
(1934.958371 6.449807423 -11.5007069)
(1937.91158 9.819479026 -12.9863553)
(1942.135029 15.30120956 12.47669279)
(1946.531025 2.154539874 16.90960556)
(1948.224172 8.448095908 -8.710390082)
(1958.702847 9.72140164 -13.37835221)
(1965.236794 -16.65540978 -3.157320579)
(1974.211417 -12.52606367 2.089800394)
(1940.702515 -8.062630671 -6.800765173)
(1954.632566 -11.90898763 -18.18238187)
(1962.722884 -16.34843152 -10.57535969)
(1961.10203 -13.36104677 -4.773217276)
(1957.860089 2.47557141 -5.195169908)
(1946.746771 4.54962845 4.41587259)
(1950.899282 -2.817294172 3.565131357)
(1938.569017 -17.95257303 5.713065566)
(1939.864937 -7.829980511 1.48182709)
(1949.43973 -8.944095151 8.067511685)
(1943.321654 11.73658591 -0.9229524261)
(1945.473024 16.43536092 13.16631026)
(1938.703204 16.07554522 -0.8134172026)
(1936.762494 10.57396862 -6.890237455)
(1945.431097 4.87076744 -13.02907223)
(1947.445352 6.915887866 -11.48316475)
(1946.685386 1.515985308 -5.513528899)
(1944.743815 2.835232837 -6.210062402)
(1944.999632 22.1646413 2.460441817)
(1934.309058 15.05081739 8.739787258)
(1921.947741 12.4189008 -0.9779868488)
(1934.4541 15.47714486 14.20696116)
(1936.376965 19.31102443 14.51589613)
(1944.478205 20.49441937 22.45297238)
(1943.826992 11.78265803 17.50158719)
(1943.538862 3.914524998 3.966683062)
(1951.512092 0.5900257872 19.36094937)
(1952.267647 8.744298056 2.882698182)
(1945.56595 15.42783346 1.807743843)
(1945.005998 -0.7562360639 -8.906539999)
(1956.234129 -12.50612419 2.103026741)
(1953.533753 -15.05607357 4.201484041)
(1949.947674 -3.587930366 -4.830939331)
(1954.41864 13.99781048 -2.955276299)
(1946.83414 15.4401869 7.088481519)
(1951.970793 13.0338196 6.160849838)
(1936.119272 15.88842524 7.764564984)
(1931.932351 13.13370055 6.977581619)
(1926.730188 -6.534585922 5.303428493)
(1918.296201 8.01129288 -10.46360053)
(1963.152078 -5.149027891 -3.085929636)
(1957.074438 5.310275432 -6.886524734)
(1959.681285 14.63662814 -0.6582073002)
(1963.53374 27.60932333 11.53621015)
(1969.832052 20.57414643 25.85878092)
(1957.595577 13.33649675 7.366659388)
(1951.521283 14.20991085 -22.46309704)
(1948.543007 16.19857716 -20.95776248)
(1952.720678 10.9920174 -20.12676163)
(1949.087133 20.43005756 -5.315442993)
(1950.680601 20.50177484 -23.9492187)
(1954.128073 14.94355912 -13.74476182)
(1955.043997 13.67527887 -12.97498354)
(1948.279715 6.038333605 -9.680960409)
(1949.273414 4.982148325 -22.12659048)
(1963.413017 5.675183565 -2.110843914)
(1956.743954 -2.558973639 21.22588884)
(1956.846401 11.11726867 -5.065372234)
(1957.437328 9.60236061 -1.496153949)
(1971.205348 5.746587751 0.5190799359)
(1948.951564 21.89851249 2.434205993)
(1962.835903 15.4462733 -5.042830959)
(1965.620504 20.98493727 -14.58372327)
(1953.027504 24.59934361 -8.54179718)
(1940.25287 20.28039658 3.607493972)
(1947.161284 25.94066721 -15.33683702)
(1962.283056 26.40799851 -5.98125341)
(1948.429258 7.754642445 -8.853638095)
(1931.173315 22.55491485 -10.63828021)
(1933.153617 24.65882407 -12.31780033)
(1945.332616 23.47529882 1.281632172)
(1952.327067 9.421378566 17.65631262)
(1950.695373 15.0017801 -0.07741033594)
(1953.873624 13.39763083 10.71831817)
(1947.631283 7.132411668 8.369076714)
(1957.930339 -9.701406195 15.70453013)
(1958.932306 -5.670406709 14.62399902)
(1961.672902 5.576222764 -13.09218322)
(1946.895503 19.25512981 -15.29252143)
(1952.408573 13.65824145 -7.404741392)
(1941.924483 24.96378668 2.952670984)
(1937.716898 16.79918209 -10.77908891)
(1933.970352 10.91765107 -14.08259694)
(1945.564596 -8.613338616 -10.31040542)
(1936.667568 -4.153689868 -33.75412257)
(1935.086859 -2.46499885 -18.69002455)
(1932.570655 -7.556239537 -17.8097917)
(1941.690603 -1.073894336 -23.86571846)
(1961.92317 5.913349122 -5.475638286)
(1969.778851 -3.239868195 4.993796307)
(1959.402084 -8.616077949 21.03571571)
(1961.66001 -10.62584566 8.516536913)
(1958.500509 -6.836007236 -5.706651334)
(1952.570565 8.501474277 -12.0485578)
(1947.321449 10.37200403 -6.931310947)
(1948.727803 19.50176648 16.12723338)
(1952.570568 19.78377797 4.782810705)
(1944.20075 8.705675873 -10.72698752)
(1943.129651 18.35710277 -11.99936732)
(1941.449644 25.4895974 -12.11391104)
(1940.211123 17.97149072 14.90621673)
(1939.265647 18.87934511 2.974245137)
(1938.607178 2.565712288 19.00593278)
(1921.680643 7.686629593 15.83695595)
(1929.656754 -0.1285500823 9.320813198)
(1920.711873 -0.7750411874 -8.070414161)
(1940.126919 -6.168207544 -19.89001698)
(1947.233669 1.066433976 -8.17928053)
(1954.300704 -13.73222376 8.663309696)
(1970.672044 -17.07898758 1.589048628)
(1962.64344 -9.911190849 -20.36862794)
(1949.954909 -11.05264564 -19.18111295)
(1950.922066 -19.3819399 0.3068166286)
(1940.945849 -25.42815078 8.968776457)
(1936.012586 -0.4564847685 -0.5839774069)
(1943.84448 3.720856455 -3.025059504)
(1929.610905 1.206924824 -5.195861135)
(1944.217511 1.134007385 0.4362204664)
(1942.329202 6.530009489 5.178862936)
(1942.346584 14.86006533 16.71599271)
(1936.666433 -28.32111918 10.47470303)
(1930.444846 -24.97931557 12.59628086)
(1926.959263 -19.88288573 -7.30228898)
(1939.16088 -11.54895679 0.4223263466)
(1942.694914 -4.169348139 3.325379438)
(1952.000669 2.748006142 11.47170998)
(1950.571718 20.27493439 11.64319663)
(1945.28496 6.869555432 7.434105448)
(1961.124154 11.2440823 1.856706973)
(1971.115125 3.116597301 13.30539499)
(1968.700839 -0.9324055653 7.425536506)
(1955.666997 13.05301362 -12.9004037)
(1925.940339 6.769001535 -17.75348223)
(1933.287574 10.60907092 -18.59986398)
(1939.638752 1.05148667 -8.189588963)
(1941.766235 8.866318122 -6.978828916)
(1954.292635 10.02212442 -8.625211585)
(1943.925374 6.826231417 -1.396716044)
(1932.453743 -0.7779297764 13.3116883)
(1921.971076 -4.7514039 22.47975862)
(1942.980054 -8.45010074 5.269628554)
(1949.927291 -17.85815697 5.649906417)
(1957.390796 -18.53651799 -5.291222513)
(1954.05589 -26.03501006 -17.62018569)
(1964.655953 -5.145074885 -15.26198006)
(1959.640467 -4.226048621 -0.9382926334)
(1956.294812 24.44985247 4.384059396)
(1961.240693 42.560762 3.636210511)
(1956.676608 23.68194947 -0.6745478036)
(1949.645997 11.88074021 5.475276163)
(1938.080402 10.19847281 0.8745044504)
(1927.46464 4.068340913 -5.284301406)
(1929.864678 3.896574017 -6.155566345)
(1934.329367 0.8287850302 -9.34030547)
(1943.152887 8.736591412 -5.979581988)
(1943.493633 9.248720359 -8.40602776)
(1958.939763 -2.318254058 -15.21161339)
(1952.499168 -5.555916957 -20.33629971)
(1935.394143 0.9430576746 2.142957532)
(1936.461414 -2.71770731 1.01004518)
(1947.729144 -15.18025992 10.67030006)
(1955.232826 -7.325469086 2.783545525)
(1954.671738 1.131688961 3.279646757)
(1942.494437 -1.744668115 -8.185376113)
(1940.655929 9.683880878 -11.23224511)
(1951.187288 12.93275784 10.21307759)
(1947.706427 7.739164138 21.89581017)
(1939.319687 8.110740533 23.75894274)
(1944.434289 -1.081892703 0.4129824475)
(1953.061801 3.305940746 -0.5292742043)
(1958.982998 8.24138749 3.12323381)
(1949.755763 9.864915757 -9.711218832)
(1942.960906 22.52369876 -6.689224831)
(1959.593527 29.51053655 10.84717864)
(1961.130517 21.08733532 12.22898991)
(1958.631649 21.06446486 20.91915205)
(1955.905473 7.925359219 17.12308353)
(1967.389328 -4.38074619 23.32539978)
(1965.715453 -15.32703303 38.72530158)
(1957.061217 -22.46545489 14.58933907)
(1930.463108 8.314236964 7.029392103)
(1936.80931 0.3350400689 16.12597419)
(1943.760719 11.92985988 7.313834142)
(1960.543899 10.64377978 0.5227091548)
(1957.859703 1.977141861 3.285951912)
(1956.886472 9.56674379 18.44710111)
(1943.304502 6.321855708 13.11922853)
(1947.071969 11.1971606 11.64393926)
(1937.049041 8.651498903 5.925458944)
(1939.64561 21.05169488 -5.71806488)
(1942.109927 30.18005999 1.895998366)
(1941.411095 16.91277239 12.74467701)
(1931.129426 -6.806084816 3.8842282)
(1913.304511 -16.33565171 9.69364051)
(1919.085291 7.674915767 22.4198936)
(1922.457531 33.74500401 14.77921271)
(1926.39625 28.56402972 8.502103133)
(1930.748162 8.938197515 6.570075698)
(1930.71605 5.523182207 -4.537322447)
(1934.362987 18.63577378 12.33061122)
(1948.713295 12.13446931 8.551025991)
(1961.142704 17.47745862 9.188233269)
(1954.713006 7.121845251 20.80844399)
(1941.699592 14.71857535 18.33571971)
(1946.622245 8.148381914 28.95223511)
(1959.752188 -8.609090309 18.76599402)
(1963.267564 -2.45006149 17.03372778)
(1953.882973 6.624668154 10.14589771)
(1946.235929 10.22393752 19.07778873)
(1939.852856 -5.808780969 22.38238939)
(1946.736665 -5.571095841 9.620781567)
(1952.955135 -8.173759837 19.01372955)
(1959.133366 3.795563905 6.461287012)
(1952.231362 7.972864861 0.7805957373)
(1947.836041 -0.2240157054 -3.18363804)
(1927.983613 -7.931437724 0.5909564059)
(1919.407426 -5.377561567 -0.9535114582)
(1926.419332 16.19656567 3.076059261)
(1923.087984 18.82154347 5.412240344)
(1940.037418 5.708223064 -4.713040099)
(1947.851347 13.0788932 9.434241626)
(1952.987692 14.0680642 18.20409526)
(1954.675529 7.096430426 4.975702831)
(1954.547755 0.6685988808 0.9535826)
(1960.174567 8.95912691 1.232726732)
(1938.200743 24.69001893 13.35195027)
(1935.281145 29.0850758 10.74434472)
(1942.179358 27.55460676 11.97332538)
(1947.371735 22.80125356 -6.960588621)
(1939.30272 14.58958721 -8.908715413)
(1930.063796 -0.9091844101 1.597948256)
(1930.483226 -12.16055711 7.389653518)
(1919.974596 -18.3677696 2.40902394)
(1920.191861 -13.26181354 11.57417321)
(1938.526733 -13.17808927 18.71329543)
(1937.474319 -4.609245389 3.726590543)
(1922.284359 -6.761811467 6.550542679)
(1940.573594 -10.20259799 11.99282484)
(1946.698836 9.797162547 17.31433822)
(1949.056482 13.43108333 29.36631306)
(1926.91318 11.52265856 -21.12106227)
(1933.272553 20.55933253 -21.74809013)
(1946.431023 14.27856663 -14.94769925)
(1953.817738 27.44187714 -17.43841614)
(1946.14488 17.575812 4.866086435)
(1937.192598 8.853368704 -4.986356005)
(1941.337306 14.64724335 -6.121794806)
(1951.275874 7.237193549 8.061859495)
(1958.17355 14.76529784 4.801016858)
(1957.747538 5.854472434 7.490780735)
(1947.357439 12.90127078 11.56695525)
(1934.200362 13.72256654 17.45124247)
(1939.556905 6.655485456 19.70120754)
(1921.62414 0.9750960093 22.17534727)
(1918.234969 -10.91308564 11.2073846)
(1909.396155 -10.50290721 13.98119884)
(1925.432624 6.137318768 -5.448509684)
(1921.479249 11.57731189 -6.825130483)
(1927.599863 3.050471442 -13.88464878)
(1918.182138 8.590364764 -14.61005197)
(1938.306255 13.5861327 -18.76571565)
(1947.319855 15.98251074 -18.3515044)
(1945.577597 4.308321502 -6.126230862)
(1931.611293 -1.794285038 -12.39659564)
(1938.173229 -15.30240605 -14.22987703)
(1949.199181 -8.494725244 -10.35266115)
(1955.715203 10.22958437 -1.293265779)
(1960.421082 -1.468767287 9.31419756)
(1951.495515 -11.8949324 3.03788457)
(1953.926432 -16.31424184 4.050589286)
(1942.915421 -2.698530913 11.86956187)
(1961.950118 9.845585384 22.50433359)
(1938.905228 16.24711477 28.66212308)
(1953.862589 11.20523891 12.64804555)
(1966.692829 17.21286654 14.46109641)
(1964.411761 22.64157797 -3.389030445)
(1945.809859 27.67498572 4.973258487)
(1937.475924 17.81820678 12.46563897)
(1923.64738 8.671150816 0.5495056127)
(1926.417867 4.199160761 -14.04684025)
(1912.629668 2.490888203 -2.782879444)
(1930.187155 16.42491771 6.20405513)
(1916.755114 13.83700869 -0.5644461846)
(1913.151203 19.00647938 -1.990068795)
(1919.195707 16.12015715 6.170830214)
(1914.185962 26.14848224 -11.43538271)
(1903.309931 19.32693563 -8.977639346)
(1917.477536 13.99469574 7.539084607)
(1917.35327 14.86194173 -0.5507197537)
(1920.882656 4.703943348 -3.261401919)
(1916.880466 -5.764611512 -19.84419939)
(1930.282768 -12.06720345 -9.846419164)
(1936.011065 4.819862187 -10.9954567)
(1941.614719 3.799201491 -17.62667575)
(1942.232754 -7.410122086 -8.864299583)
(1941.373946 -9.014958504 0.03338150736)
(1943.761769 -4.456761639 -9.768168642)
(1927.849657 1.901836085 -2.400613028)
(1916.408186 2.845830114 -15.58539495)
(1914.432943 15.32015142 -10.57286411)
(1971.190763 23.94616481 4.361663497)
(1958.427136 15.59479117 -4.206945757)
(1953.720381 12.09750586 -9.18783713)
(1938.513194 3.568979035 -10.01528463)
(1935.070239 3.44265774 4.569886428)
(1944.149852 -0.2970196493 15.38079978)
(1932.024312 -2.760549878 14.45920979)
(1929.617047 10.24743653 27.52760403)
(1950.100995 15.96634965 20.88382911)
(1935.117652 19.1274738 0.7557152644)
(1923.319224 37.93472187 9.941198565)
(1916.933495 29.22565965 9.257449893)
(1929.135034 15.76904225 9.547288293)
(1932.754724 15.49311353 10.7565468)
(1937.092423 9.605243312 -6.864472616)
(1942.184366 11.83288995 0.396240752)
(1951.312618 22.31662294 12.26994039)
(1971.184341 19.9415896 14.15349626)
(1982.749449 22.95588298 1.896101767)
(1974.689793 24.71402716 5.000063925)
(1953.527596 10.21327563 -20.86429106)
(1953.94571 3.716614129 -5.167979565)
(1946.490697 2.368473244 9.634268244)
(1946.237886 3.955821204 1.145611174)
(1943.264846 -20.32483755 6.1047851)
(1940.41494 -23.84404151 12.50862268)
(1951.720384 -5.370718999 6.765591338)
(1957.858995 -2.723545922 8.896599987)
(1944.678494 7.424681657 6.570911197)
(1952.994686 14.049074 5.689351614)
(1960.027278 -5.868573383 4.555958943)
(1960.059812 9.304098364 0.7815553053)
(1950.724005 12.44122029 10.11595104)
(1952.615084 9.407352328 -1.146083648)
(1949.123884 11.66366132 5.155928534)
(1950.352322 15.16220197 13.9582725)
(1951.743988 14.9690553 13.28563299)
(1951.444466 16.09636763 7.415554918)
(1957.072664 18.17509753 1.786622215)
(1950.620499 5.333541503 -0.1635745985)
(1934.929965 -15.43345919 15.91373788)
(1943.09695 -5.978414349 7.935204096)
(1949.657705 5.911934613 12.91736443)
(1954.393313 15.2485103 10.87995354)
(1958.615035 37.49195775 10.90233917)
(1960.795203 42.22482455 18.4992944)
(1963.615742 38.20679465 11.595286)
(1967.398728 44.97569247 7.109333227)
(1947.802497 37.75764324 5.021329068)
(1955.057767 23.51278371 -0.660774856)
(1944.057806 18.62388866 -15.07805994)
(1936.182347 20.82284896 -10.1380908)
(1950.737182 22.22546747 -15.12743749)
(1951.573913 15.96060564 -11.09872959)
(1950.65479 11.14197617 -17.07297671)
(1960.511014 -0.2852435676 0.6862355737)
(1946.950446 -10.99861698 -0.3597883704)
(1937.773378 -4.871663776 6.424430576)
(1929.793822 5.09492777 5.740839665)
(1930.495954 0.3296764008 10.24844927)
(1952.714132 20.19063934 17.99748933)
(1946.059938 9.612638339 16.83954968)
(1953.503932 10.67852773 13.33210015)
(1953.298849 12.76406265 -6.831914447)
(1941.980786 5.656086125 -3.03518037)
(1946.002798 5.757418847 -2.305984985)
(1938.481496 -0.9954770532 -15.49512528)
(1942.373748 -2.368069837 -9.370662534)
(1949.916741 -2.879884873 -18.81050759)
(1947.548128 12.015863 -22.79419236)
(1944.163251 5.664892629 -18.04878018)
(1951.440106 3.686745108 -13.8354591)
(1946.297683 0.1095423412 -16.75548937)
(1927.154082 2.803243241 -20.42789475)
(1928.594144 -15.45453579 -10.95547459)
(1923.187388 -5.0005652 -17.1609127)
(1927.952147 1.903628795 0.8786318768)
(1935.30001 3.885466379 21.64162992)
(1959.783793 13.47605594 38.61060485)
(1955.005885 7.07660896 31.28122302)
(1951.365799 8.700548619 3.629388791)
(1960.966132 10.38598007 9.075238013)
(1960.683205 -0.9205278205 1.561078092)
(1950.277324 -12.02958043 -20.08403036)
(1964.743237 -13.29138734 -26.50349642)
(1977.006831 -22.31340575 -9.60866126)
(1962.369384 -21.64333901 -10.63118324)
(1963.876313 -13.27585413 -1.029361393)
(1962.499056 -3.379687512 13.3422503)
(1971.24712 -3.264103445 18.00197212)
(1966.159114 -11.44854278 -6.16398702)
(1958.367479 -10.38296274 -11.87639838)
(1957.763589 -14.71741981 -0.1689931965)
(1965.381041 -11.49576947 -5.506235118)
(1961.40684 4.674364206 -10.64219992)
(1956.502071 9.610215826 -9.222065917)
(1949.144835 10.44725701 -7.644856541)
(1935.53316 3.101103082 6.987439887)
(1939.45403 14.98510354 7.930029066)
(1943.488517 12.02682369 10.42440114)
(1952.333547 5.643289656 -8.273880565)
(1939.983614 -3.880499731 -12.18381103)
(1934.679506 13.64634043 -8.751090297)
(1942.767575 19.96694796 -9.756363953)
(1964.235728 16.46656114 17.67094521)
(1956.24681 -4.233644019 11.093828)
(1967.799532 -8.45908219 7.788870723)
(1963.771012 3.334300125 9.61015292)
(1959.270217 -22.89256509 2.638454955)
(1946.528394 -30.76069114 0.2290887065)
(1944.506429 -24.18054763 -1.306187814)
(1959.081072 -23.69944406 -11.49223787)
(1949.211392 -11.10526626 -6.630632717)
(1945.948949 -3.07383755 -11.05399432)
(1941.895017 1.530421409 1.825522429)
(1960.997652 0.304914468 -3.918162338)
(1951.140848 7.376236537 9.667315857)
(1949.083031 18.85804196 26.68308112)
(1952.105145 8.985775057 29.8532243)
(1945.507944 5.411015576 7.206943502)
(1953.473577 3.805095827 -15.37893021)
(1957.394971 -7.969081477 -5.167698293)
(1958.205682 -8.608012568 -23.66315114)
(1962.280074 -5.718211691 -5.632072625)
(1959.902033 0.4068298922 -9.192716853)
(1972.057143 -9.417578017 8.252904074)
(1977.419817 -3.718781199 21.07673314)
(1972.600051 11.20506522 19.99922961)
(1964.947157 10.6222563 -2.916003283)
(1962.8077 16.48362652 -12.10221193)
(1961.891707 9.324986027 -12.18158199)
(1949.712866 4.020605424 -12.85780765)
(1947.886755 2.836958348 -15.21102543)
(1957.061414 7.234046157 0.9108763301)
(1951.960366 -6.751820114 5.783867169)
(1949.227439 -8.067378887 2.6494985)
(1939.996276 5.090452966 3.633971335)
(1924.391632 -4.515070244 2.256531972)
(1937.013208 5.926843754 -0.4210869414)
(1949.285916 8.984276554 -14.69803548)
(1952.135251 1.407719129 -10.15689334)
(1939.800219 9.825960383 -0.3991392473)
(1956.146239 3.180409261 21.36998279)
(1959.687313 2.194533598 26.4236672)
(1963.361088 3.560979409 18.4116309)
(1957.146954 24.81982371 -3.005602249)
(1950.156584 -0.5294219346 -4.4075946)
(1940.814335 0.6501119157 -0.7147384078)
(1938.527582 -8.199622485 -1.021458155)
(1952.683182 3.078568268 -5.880167985)
(1954.881095 6.848305053 2.473825593)
(1958.983291 6.364654804 6.048233303)
(1977.359132 -6.103223563 13.68721894)
(1979.872509 3.205166133 -0.8840478544)