/*--------------------------------*- C++ -*----------------------------------*\
| =========                 |                                                 |
| \\      /  F ield         | OpenFOAM: The Open Source CFD Toolbox           |
|  \\    /   O peration     | Version:  2.4.0-MNF                             |
|   \\  /    A nd           | Web:      www.OpenFOAM.org                      |
|    \\/     M anipulation  |                                                 |
\*---------------------------------------------------------------------------*/
FoamFile
{
    version     2.0;
    format      ascii;
    class       volVectorField;
    location    "0.0009";
    object      UMean_N2;
}
// * * * * * * * * * * * * * * * * * * * * * * * * * * * * * * * * * * * * * //

dimensions      [0 1 -1 0 0 0 0];

internalField   nonuniform List<vector> 
5120
(
(1940.241245 19.12278924 18.3389064)
(1928.876475 14.05237456 46.8883342)
(1919.064788 9.077269314 59.70542513)
(1928.388005 -12.98513552 33.27474914)
(1921.757125 -13.5945569 30.03868698)
(1927.212708 -5.985407511 17.67793877)
(1939.074399 4.704858686 5.374764682)
(1951.05728 7.956252437 25.03606369)
(1960.766417 5.623451678 8.752051604)
(1951.456592 1.272073687 15.81640468)
(1957.560214 -9.076398756 10.2849265)
(1967.866152 -21.17853607 0.2205284669)
(1978.314076 -13.03907611 -5.61766883)
(1961.609524 -4.074425598 -0.9787807448)
(1947.18889 8.2485934 4.37514524)
(1945.582351 25.31129963 7.241209447)
(1975.064606 30.56740123 -0.1509470795)
(1966.411893 35.30890444 -1.991965723)
(1946.742836 30.34114402 5.689770818)
(1948.755847 14.6648302 12.05423274)
(1927.531275 19.25065479 -7.193625464)
(1935.173755 10.16891857 5.82958909)
(1933.395349 3.344167194 16.37532185)
(1940.987251 -8.321127124 17.03732984)
(1942.10943 -3.149818557 8.866715371)
(1942.209098 6.051593831 -12.9045198)
(1945.302216 18.71457524 3.5919612)
(1941.567509 18.96477197 -6.359574307)
(1930.247236 20.20464571 -23.38010074)
(1928.90878 7.452668692 -22.79254134)
(1932.427937 17.35862565 -26.2230564)
(1956.009418 9.181532971 -12.96460835)
(1950.785508 -5.120645397 -5.063420071)
(1954.413617 -1.791347622 9.159288072)
(1951.901661 4.91827109 32.48815258)
(1949.536706 -4.805166709 5.719111413)
(1952.139553 10.76227475 -0.2555991858)
(1956.298499 3.493061317 -7.504991729)
(1947.687217 -7.003041947 -5.636988478)
(1934.890079 15.53258591 -18.35253329)
(1936.753648 8.147428634 -9.866635966)
(1924.965186 24.69685749 0.2062592163)
(1923.474937 17.25103009 11.04610725)
(1936.332753 13.15764697 -7.872136461)
(1945.034441 17.84758196 -7.814078811)
(1936.607217 8.330278029 -14.76673566)
(1935.009379 19.52046619 -4.638240433)
(1940.10354 14.7404072 -5.1075965)
(1948.10984 13.09046853 3.322485887)
(1956.088021 13.52089554 15.62503833)
(1954.082568 13.13619133 9.673270108)
(1957.500172 10.70122303 6.662819687)
(1943.398623 16.47723986 0.9836482758)
(1929.729095 11.65699526 0.06243330023)
(1927.250797 3.094000516 -7.878258729)
(1921.931194 10.95648797 -20.41441506)
(1918.85324 -1.495056304 -25.45035008)
(1934.325476 -15.56350051 -17.70895089)
(1937.075389 -12.5288566 -3.906589236)
(1910.912629 3.926414028 -12.52174117)
(1938.917869 9.895174028 -21.48029348)
(1936.79208 13.24119839 -8.589502958)
(1950.496134 11.44182883 -18.16609135)
(1943.56731 12.11638494 -15.91913076)
(1954.081877 19.26590672 -16.52212462)
(1967.93015 31.69007912 -15.01357609)
(1956.605837 15.38483329 -17.53956636)
(1960.415447 5.072906671 -3.086686616)
(1964.349374 6.657303534 12.01705379)
(1939.660621 5.927901919 -0.3885934089)
(1947.533441 9.004288316 -4.951491864)
(1946.859681 -1.526877093 4.877264162)
(1943.285109 -4.224415093 6.782770331)
(1951.063826 -6.100757305 12.51639658)
(1937.755555 7.392061831 2.725610098)
(1936.440831 7.720181303 2.178434851)
(1914.92769 11.27718105 -17.79598973)
(1924.023895 20.61929957 -10.84503928)
(1928.420493 18.67690485 -10.78224917)
(1948.724788 6.086966155 2.048813839)
(1932.213434 -6.021104174 -9.121906881)
(1945.25033 -7.063066419 -14.19389792)
(1957.68088 0.117560411 -3.038814977)
(1945.713168 -4.149464906 8.102004725)
(1961.703632 -1.882408596 -9.275219235)
(1975.53529 6.218935333 -3.120398443)
(1963.729564 19.10997207 -6.966866442)
(1937.064559 22.77974507 -11.11496379)
(1939.081445 21.47781338 5.617532808)
(1940.424037 13.6008279 -1.065651687)
(1961.739367 8.998442162 1.001910073)
(1978.231471 10.93567843 7.422056258)
(1951.924698 27.06957877 12.26218813)
(1945.38747 23.78895508 3.797253435)
(1949.651535 15.18152829 -2.488303496)
(1957.433695 15.5272937 1.967151462)
(1961.110277 25.02583443 3.649993519)
(1977.373921 4.532938687 -1.665194292)
(1973.407372 6.221206173 -2.553908067)
(1937.970263 4.502985561 -4.816073456)
(1959.237921 24.04644308 13.17821543)
(1956.490836 26.44841305 8.053310613)
(1951.96538 24.81373 17.18992448)
(1959.41931 25.96720968 6.989519128)
(1972.704611 11.90736171 -1.722556497)
(1959.099484 -0.3912286399 -14.75547883)
(1947.106542 13.18515877 -40.13854196)
(1941.78298 13.85440363 -36.2983935)
(1932.660716 19.58330156 -31.61851979)
(1936.038294 21.38031445 -3.722550235)
(1944.99508 20.57531533 30.61004673)
(1945.663706 7.339691332 25.79122302)
(1953.204687 17.62916939 10.32081728)
(1966.624287 10.1744316 9.366103922)
(1952.241838 19.22393979 -8.108762852)
(1954.741892 14.03372987 -4.529869938)
(1952.92311 -10.31930866 18.34556848)
(1941.688289 -1.670799477 18.80732302)
(1941.143692 19.52448006 -2.340855081)
(1952.623365 10.42244294 19.31171548)
(1944.893165 14.29889567 -13.04744892)
(1955.401357 19.96391615 -26.66200512)
(1952.649075 9.151910654 -4.179039251)
(1947.703935 10.09070833 -8.839391027)
(1934.662786 23.26929453 -16.7446511)
(1941.274875 37.14831334 -28.10939816)
(1936.609722 15.76301784 -40.46285831)
(1943.111073 24.55499499 -51.34478919)
(1942.810671 18.1892334 -25.26984339)
(1936.671045 12.22598366 -7.539645765)
(1937.489118 23.56657312 5.489186178)
(1944.707625 16.75083794 10.81560481)
(1943.628906 26.04143247 19.68069139)
(1944.564897 9.808665593 3.835981946)
(1948.633702 6.671635735 -17.08014578)
(1946.365608 -2.304493315 -14.98432031)
(1946.955065 1.303702429 -16.53903437)
(1955.613886 6.03013971 -7.214319429)
(1961.123409 -13.24671675 -1.869123198)
(1952.539965 -6.81440652 -7.594262024)
(1944.80381 -14.18427886 1.228036602)
(1941.688524 -8.030015715 1.156684469)
(1929.702428 -15.69698248 -3.538862762)
(1935.036872 -12.35150761 -7.617417399)
(1939.031955 -23.04354317 -12.85769965)
(1934.97189 -10.16813347 -19.22964591)
(1924.007807 -0.6821225657 -28.25225275)
(1932.730773 11.42821673 -10.17934893)
(1951.420154 20.18660487 5.026182029)
(1948.442462 18.71721752 8.362875719)
(1934.668576 22.96094474 5.572744412)
(1946.222763 25.59052303 8.21971952)
(1945.163815 24.2368412 18.78505616)
(1948.090875 25.98971157 32.85531485)
(1957.422623 11.98610137 38.48969666)
(1958.029799 13.59189423 32.96957021)
(1945.664577 7.84277072 17.5324386)
(1954.418873 7.610606195 11.77220397)
(1962.400614 9.376318746 3.223729818)
(1959.000354 12.71325962 0.09104659502)
(1958.949473 26.18136051 15.21787651)
(1956.010623 23.88424567 2.665141238)
(1958.661214 4.519297959 5.216870421)
(1960.938461 2.43250059 27.18638645)
(1957.844996 18.44429323 28.62135429)
(1943.352331 23.30604666 4.44651563)
(1951.963141 12.00089259 31.23397396)
(1970.393532 23.25286602 15.49284393)
(1936.919922 31.89201721 20.69042742)
(1926.300225 16.60464944 8.275350505)
(1933.922102 -4.484437967 7.826434015)
(1946.005511 -14.62517082 -8.854733816)
(1964.416974 -10.96655793 4.836987305)
(1970.370597 -16.00253907 13.03500527)
(1971.764544 -33.88848619 6.721317105)
(1965.206631 -38.98164025 -7.194744765)
(1973.289537 -10.87418884 11.7914166)
(1968.365374 -0.7971921054 12.72123947)
(1962.488239 -6.333188111 12.45533332)
(1961.313538 15.52088563 11.91382023)
(1946.776927 2.980147435 -11.44787523)
(1965.966751 -3.29951264 -1.660338745)
(1969.155044 0.8943105216 8.196215325)
(1976.930819 8.289264923 2.892991799)
(1968.398892 10.18751384 13.69981825)
(1962.685116 4.448430242 24.35918995)
(1941.900657 18.20908779 32.85491697)
(1931.933767 -7.789539797 31.47293926)
(1938.115094 -15.16584161 19.80795226)
(1943.179682 -3.074158401 10.42689465)
(1951.593617 1.628485406 14.41047894)
(1941.441186 11.97104016 2.893676994)
(1934.538466 6.024355249 5.115907679)
(1932.996359 -12.9544283 13.3630765)
(1927.164652 4.790114859 24.47744558)
(1924.620534 4.243143219 16.79296323)
(1928.078049 2.822738085 18.65988064)
(1913.159411 26.22425646 9.34527393)
(1911.411372 25.37600012 3.66469142)
(1922.964048 4.579497212 -14.13137753)
(1929.353907 -12.73708206 -6.031715552)
(1947.602997 7.791301633 15.69423522)
(1955.000117 25.45231757 10.10392222)
(1943.844853 12.44427978 14.37918462)
(1932.683328 17.36230979 14.83556633)
(1939.135907 23.69904338 7.944464497)
(1930.009528 9.329683608 4.682991663)
(1932.82212 1.223206639 9.741584462)
(1938.487937 -3.016951392 16.57342162)
(1924.934683 -20.09332052 2.62629324)
(1942.287572 -3.819558869 10.66268922)
(1936.293249 -18.3112237 -6.447830278)
(1942.657334 -20.35426912 -15.53834006)
(1953.663062 -14.2022908 -31.88447341)
(1951.308403 -2.549441661 -4.851865806)
(1961.366867 13.86111871 -17.72610927)
(1968.290881 -8.077047101 -6.347727707)
(1962.333539 -10.75493749 15.22212968)
(1946.378 1.201869438 1.095882443)
(1913.930906 7.476667192 17.65826269)
(1935.281375 17.74834038 -35.75067692)
(1945.570524 -0.8224523822 -24.33655922)
(1950.042555 11.73012643 -31.85737448)
(1939.889188 17.17137586 -18.20456617)
(1949.662524 3.09252634 -11.29511515)
(1948.819147 -1.305779318 -14.54882445)
(1967.51283 -10.81688 -31.34085525)
(1968.191285 0.5544242743 -18.87409464)
(1974.131504 7.526446918 -16.75962544)
(1978.263229 -13.29030469 -2.076214631)
(1962.451162 -21.31744758 19.63367893)
(1952.812712 -11.26184293 4.99369988)
(1949.244108 -10.99303231 -7.609599466)
(1960.607289 -9.656594561 -7.368137354)
(1948.781634 -15.8555589 7.268645628)
(1968.350251 -23.9992724 11.54557948)
(1960.854237 -16.78616444 1.845609666)
(1940.411004 3.813870793 5.455967329)
(1945.379754 15.40287954 -0.1610902521)
(1938.993129 13.17067781 -6.768405105)
(1939.245429 -4.099988307 18.09705226)
(1925.330836 -0.3155929084 14.65673705)
(1933.955917 1.264501083 -0.02452337966)
(1942.463902 -1.701468417 8.021717159)
(1959.997324 9.249358126 -9.250794109)
(1953.057077 -14.5255509 -3.930175163)
(1948.176328 -21.19671767 -9.648685126)
(1968.566391 -5.428320898 2.981433415)
(1978.85191 -9.060981923 9.148039805)
(1969.595551 7.648997296 20.27242919)
(1962.339638 15.53197367 -2.608975614)
(1949.177141 -2.518289555 21.83913606)
(1949.21129 -6.29874436 16.70397447)
(1949.447967 -6.415698967 13.22135276)
(1930.245074 6.831324645 4.690058849)
(1932.432275 -0.2644951717 2.655076216)
(1949.446695 -11.07474864 -5.959136669)
(1956.370312 -31.6228747 -16.49032912)
(1958.660914 -13.30693114 -6.824084081)
(1949.623901 0.5584124968 0.2644211326)
(1931.322471 -4.132495548 3.415787048)
(1927.815342 12.1044267 -11.4838335)
(1933.610621 13.69221332 -15.28019131)
(1937.950866 -10.27270983 -9.883901044)
(1928.325881 17.63952952 -0.8777973209)
(1939.232792 22.85719776 5.248076799)
(1928.315541 18.22913883 31.9616859)
(1935.974729 8.381937425 35.19123866)
(1933.826544 -6.617419084 22.36556735)
(1942.478802 -37.09595009 8.528526277)
(1938.047013 -23.51723613 -1.152157185)
(1951.524549 -22.89731297 4.176624281)
(1949.985457 -9.251531269 0.2201449546)
(1949.094053 -18.00091341 -7.164194616)
(1948.932526 -20.00523105 0.9181905393)
(1951.653011 -19.60123494 -2.581518101)
(1962.080244 -5.824226693 11.61395658)
(1963.517775 -5.535517707 7.789833643)
(1954.121471 -2.663571991 2.588442482)
(1944.88892 3.384914582 -0.2479443769)
(1973.679383 -5.063232296 -13.40413837)
(1975.547307 -3.386906493 -0.5755028486)
(1962.009777 7.760854742 -16.25200499)
(1968.969911 13.94130325 -10.46673964)
(1958.517563 16.51375779 -5.829034599)
(1952.216709 3.777892951 7.689933082)
(1943.236905 -7.535747665 6.839675117)
(1944.37579 -9.847068873 -8.100368658)
(1942.233902 -0.9098165476 11.23289373)
(1942.26222 13.90157958 8.297336801)
(1934.333878 1.093643299 16.41442462)
(1945.003499 -13.64434274 4.031062199)
(1932.631745 -11.9706824 -13.6874224)
(1929.873457 -0.6569140604 -9.785301798)
(1935.413077 10.69025108 15.1878758)
(1945.523195 -15.25916218 17.88410572)
(1956.500355 -9.482252041 -6.277287256)
(1962.895533 -6.949686519 -5.847819147)
(1972.529548 -29.5362761 4.832914274)
(1985.117283 -16.41975695 0.356633209)
(1939.583205 -4.931011989 -14.60397067)
(1952.407171 -14.34061885 -31.02328177)
(1964.191624 -17.54510079 -13.9088644)
(1958.281089 -15.07333635 -3.306422415)
(1948.384841 5.75966484 1.191472788)
(1941.33975 3.108494265 4.403857286)
(1946.072342 8.956018889 2.96687879)
(1938.894156 -14.47452956 10.60124398)
(1944.321258 -9.431130987 5.779951326)
(1954.496085 -22.96559666 8.951276996)
(1946.329268 1.570292963 -7.358620267)
(1946.377427 11.83262741 8.253532728)
(1944.510201 23.50280732 -1.009794016)
(1946.117026 12.56163661 -5.364415264)
(1949.157332 6.640930799 -9.660861736)
(1942.476449 8.670074561 -2.507350636)
(1933.382732 3.495079984 1.691008472)
(1937.444123 -4.291387291 -7.246009242)
(1942.849621 8.061819292 0.1311514961)
(1935.245013 6.086265654 4.69165398)
(1920.028097 5.106471109 11.94754417)
(1937.018849 18.11919836 26.73700201)
(1927.593483 23.21889456 22.83816205)
(1937.888258 30.43018303 27.40993937)
(1940.215458 12.58112712 19.74775084)
(1945.654512 5.307802347 6.568902707)
(1952.508079 -3.297570379 26.83874495)
(1952.432453 11.86811392 3.281222371)
(1952.968324 9.073714593 -3.190432129)
(1956.53044 -3.2694903 -15.05030924)
(1970.482662 -13.32647018 -4.835160456)
(1957.905121 -15.22458636 2.865996201)
(1962.475086 -13.46636578 -0.2761844166)
(1967.528226 -1.274473409 -1.188274901)
(1958.794393 8.508387361 4.641704848)
(1963.303026 8.672795748 6.118329636)
(1939.077174 11.70634505 20.96027793)
(1924.48569 7.372425226 15.83857801)
(1915.244829 -17.74385615 15.94676376)
(1913.833951 3.175028591 -0.6524966306)
(1959.532103 -12.15269652 2.038981299)
(1952.395384 -0.3197088209 -8.517648443)
(1955.827561 8.298927017 -4.606261125)
(1958.62419 21.00769466 -0.9349197228)
(1962.028538 21.99470467 18.85464726)
(1950.693331 16.82127399 -8.009924039)
(1947.793059 22.30678964 -40.66403159)
(1947.550295 20.2398286 -37.20138456)
(1946.186874 11.56702678 -21.07128066)
(1940.002979 15.75602594 -2.682470156)
(1945.357774 20.19334888 -16.64190943)
(1949.221797 13.80329387 -9.998699085)
(1951.451712 15.14440626 -7.047413896)
(1950.719494 8.710464942 -14.83663814)
(1948.646144 7.277490717 -20.11883489)
(1963.031877 -0.3665844097 -3.505828223)
(1957.335058 -4.278463752 29.62794278)
(1957.837068 14.11697566 -0.9924565744)
(1952.822461 15.88712906 2.656303259)
(1968.886682 16.68732434 11.46725784)
(1960.88581 23.49607176 6.960532997)
(1970.460515 18.54110218 -6.777343119)
(1960.682804 31.00597425 -20.6247951)
(1949.805541 30.826674 -15.66370024)
(1943.419711 28.92397031 1.547562603)
(1945.507762 27.56219294 -9.804087974)
(1957.898475 24.632989 0.1587338733)
(1939.565471 12.96960873 -16.93481079)
(1921.721929 18.60262376 -28.37009969)
(1925.36815 20.08293774 -22.42306664)
(1936.709557 16.91531245 12.00807969)
(1944.305608 3.983992578 14.6896202)
(1947.138884 13.77022785 2.248770323)
(1950.68116 12.21551555 12.67706704)
(1941.134377 -6.171945428 21.7179736)
(1957.727347 -12.86110568 31.14810317)
(1956.974719 -9.13480173 26.85336311)
(1955.442638 -7.618704282 -9.046878357)
(1947.436025 10.3797636 -9.521471205)
(1956.638386 18.15141433 5.954089404)
(1949.218673 19.6026353 -7.261771697)
(1942.353332 12.13064857 -21.95366977)
(1940.518203 14.59222051 -14.15962917)
(1956.454046 2.623745337 -4.815563626)
(1936.475935 1.78243342 -24.5308909)
(1931.509689 6.463518693 -5.684536888)
(1933.143293 -7.781920444 -2.832333894)
(1944.612364 -11.0420661 -20.04325045)
(1959.904612 -6.105538541 -0.3198095363)
(1975.046846 -12.142844 -0.1819197697)
(1961.897276 -13.39568093 16.24857146)
(1958.125183 -11.01444253 1.136358248)
(1952.557277 -6.849099565 -15.63849462)
(1948.050471 7.508339312 -23.71039417)
(1947.279739 18.06116428 -14.88907197)
(1948.808395 19.66217935 -3.520908229)
(1958.650689 24.7746993 0.2938611802)
(1947.457667 21.76276855 -9.505668512)
(1947.403626 26.71261972 -20.49625263)
(1947.023891 28.85469074 -23.12694537)
(1933.317068 18.9418708 12.76399433)
(1931.813317 17.97556313 -2.801970162)
(1939.871244 2.0143031 22.7651376)
(1924.839173 5.91832309 10.86945552)
(1935.991316 2.235656856 9.084944103)
(1922.823694 -6.478942028 -1.779959504)
(1947.952963 -9.571789611 -7.4719229)
(1956.635619 4.854294659 3.238251686)
(1959.758944 -11.07352386 18.55232518)
(1975.16206 -10.64718049 10.18440094)
(1963.147128 -12.55676011 -6.581584329)
(1951.728958 -12.82338203 -11.59224165)
(1950.255357 -19.52425019 4.38254494)
(1938.457193 -22.95757055 10.10788836)
(1936.206269 2.84418652 -4.991451649)
(1938.861544 15.52746388 -5.037703411)
(1931.959898 8.864796161 -5.602613883)
(1953.584982 3.770846994 0.9674522311)
(1947.055938 4.12603203 0.8795901544)
(1938.306147 12.73469411 7.626128608)
(1935.885077 -25.70257106 17.36946895)
(1926.781897 -15.57501934 18.29370874)
(1928.049423 -6.124286798 -5.190116865)
(1941.838952 0.653819776 0.4532596731)
(1936.953645 3.501767679 0.6272656315)
(1950.373888 3.639104014 12.21319126)
(1956.183086 19.31145482 16.55663515)
(1957.221231 -0.4469602562 9.909321068)
(1968.345425 5.344163283 3.080305851)
(1975.835631 -7.33861627 12.04000212)
(1961.925237 4.77590271 10.38397455)
(1942.807292 22.49366045 -20.27539264)
(1924.631922 12.79213357 -33.3149868)
(1943.03677 29.23891177 -32.23544096)
(1945.80242 13.09173834 -12.16745141)
(1946.598162 18.53829304 -2.529164194)
(1958.457656 15.99704389 -11.80373025)
(1949.608487 17.53835567 -8.946215951)
(1937.005582 10.73308203 17.79144471)
(1926.107989 2.90008409 26.97555812)
(1951.75395 5.212356742 -7.2236916)
(1959.683928 -7.864861147 2.345594044)
(1972.142043 -14.32081301 3.815406955)
(1958.593051 -21.29300096 -15.12503403)
(1960.259996 -7.342211232 -16.82643351)
(1954.047514 1.593858917 4.490562958)
(1951.523449 22.97966467 9.012483622)
(1954.12991 41.23493676 1.997375205)
(1951.002533 21.83745148 -6.180465586)
(1950.8869 16.07668675 0.05408197255)
(1943.826711 6.309844469 -5.05726738)
(1922.445297 5.278005961 -11.88419528)
(1927.366563 1.878064655 -11.745908)
(1927.296836 1.174605435 -11.41527744)
(1940.871421 8.829425022 -6.900013455)
(1946.442294 17.10896062 -2.836804296)
(1957.573223 2.446571328 -10.19107178)
(1946.228005 -1.205041399 -21.5748221)
(1929.697711 6.348384079 0.4954778017)
(1937.063048 4.225574329 -5.058436795)
(1943.903884 -11.8081276 7.858407683)
(1947.373119 -8.507735506 -3.576511205)
(1944.353405 3.13121269 4.11248809)
(1929.107453 5.705193085 -3.908788036)
(1938.205699 9.265123415 -12.61589854)
(1952.630578 9.064420735 6.467935887)
(1944.110792 -1.351250154 26.35998055)
(1934.666692 4.426237206 25.03452532)
(1932.727969 -13.77530214 2.579310563)
(1938.584807 -11.174477 -10.85191613)
(1952.156168 -2.174037554 -1.979231378)
(1951.06528 2.196070509 -13.16572743)
(1947.82227 32.16032743 -2.908351809)
(1954.767564 43.76269871 11.49621357)
(1956.896374 34.81446271 10.08024654)
(1951.41803 32.4893719 20.52935305)
(1948.887255 9.792553668 11.19650313)
(1957.785023 0.6160909457 22.65801939)
(1956.944368 -11.76440625 33.04092282)
(1949.580625 -18.14059687 4.750351868)
(1942.214171 13.53085542 17.14515052)
(1943.302873 8.707847691 29.63211501)
(1939.4126 20.16309912 10.96565536)
(1954.437851 22.8334422 -7.106180909)
(1955.830409 13.1803608 0.6992768324)
(1958.99185 15.1880677 25.32644124)
(1941.651175 9.038053767 19.00133107)
(1953.841018 11.44481311 10.4983297)
(1941.268177 10.67712891 3.956181674)
(1949.274288 20.72857447 -2.703872059)
(1953.705408 34.64597593 3.473969718)
(1946.908855 16.68375643 9.124577429)
(1935.564558 -23.45340096 -2.20867187)
(1925.71236 -26.07212226 5.009226969)
(1926.583871 11.30448776 22.87691166)
(1930.332525 36.94936484 8.86498635)
(1928.882181 33.1477218 11.22624321)
(1939.410135 10.23374659 0.7739845791)
(1943.172675 7.43157698 -8.718530988)
(1952.039953 28.20498212 28.41935625)
(1945.842299 0.3616881266 15.40339682)
(1950.873283 15.129634 20.14554503)
(1948.621533 9.931045191 26.3401513)
(1939.575097 9.054097357 25.10455175)
(1951.568141 7.002322039 35.2641977)
(1968.15008 -8.91821761 22.17705468)
(1969.430767 3.76915846 16.11413625)
(1958.092386 16.6507191 6.959834647)
(1945.580912 18.97707924 18.79303215)
(1937.096713 -2.478551732 22.66217355)
(1950.044516 -11.06370638 12.56533238)
(1956.658383 -8.799856341 15.52837832)
(1968.002848 13.08831677 1.502973708)
(1960.974401 7.158365276 -4.639638763)
(1957.317819 -13.33154984 -3.573354263)
(1935.487335 -22.58648392 0.6685320053)
(1921.963841 -9.30328867 -2.518535783)
(1922.080156 28.86267989 -2.336545497)
(1917.25985 23.80028874 -0.8617255309)
(1937.474734 -0.1566256502 -6.824187743)
(1938.674246 10.08627159 5.562592791)
(1947.216907 9.471878842 16.97275981)
(1955.667578 0.008732922292 -0.572024471)
(1958.627172 -9.725644748 -11.22465156)
(1962.469487 11.10799376 -11.72467202)
(1939.380309 24.56836785 7.358872943)
(1939.667961 30.58390953 7.331357539)
(1952.433012 36.31697028 16.23593013)
(1962.818293 27.2535587 -14.89886578)
(1947.777795 25.05396511 -10.41817902)
(1937.080093 5.17442799 6.222666238)
(1942.937111 -17.05537656 4.442224555)
(1930.548845 -32.80536007 3.297266539)
(1929.887913 -14.48320495 21.60573506)
(1938.217261 -10.0416119 20.32959774)
(1923.60034 -3.571067803 0.53824586)
(1915.311635 -12.55488566 6.953200759)
(1943.009546 -25.98177626 12.56233616)
(1947.623314 -2.830713614 20.13613072)
(1947.533463 5.534713599 34.75127365)
(1928.860972 13.1238592 -12.68670799)
(1939.957817 29.35592307 -18.92665501)
(1952.869709 20.37952017 -18.10242624)
(1962.156749 39.26727415 -14.38711814)
(1958.996967 22.25370448 8.357571015)
(1951.348332 12.56319711 13.72357696)
(1948.177969 13.0118271 13.66779797)
(1959.079599 -5.493616418 9.972148199)
(1961.617678 5.294602941 7.78127642)
(1969.669437 -4.292361067 2.970236952)
(1955.539747 13.84154233 8.225975673)
(1933.923155 22.92650368 15.1710574)
(1939.299186 19.15353435 25.84457881)
(1907.666109 10.46588441 10.21243629)
(1912.19012 -13.8958462 3.957913357)
(1904.445618 -16.49851752 -0.1812832567)
(1921.900291 0.7909857615 -9.033936478)
(1924.038715 6.861561683 -7.455502971)
(1923.318696 -1.860719253 -19.35458943)
(1907.245374 10.1088438 -16.9085048)
(1937.49503 10.99299338 -24.57983761)
(1943.771762 14.3292659 -16.16829057)
(1945.740605 8.850312527 -4.30104513)
(1937.150743 -0.9222572899 -11.50576393)
(1938.385424 -21.63443599 -14.17961535)
(1941.912608 -7.663304354 -19.17771767)
(1948.667737 12.20792858 -1.727378985)
(1946.327515 1.372593437 8.142297711)
(1942.088386 -13.29892519 -2.835487722)
(1945.60506 -23.70794789 -9.885511619)
(1927.479889 -19.13573464 6.430465431)
(1951.420598 -0.1018210426 16.21893758)
(1933.946733 18.63820555 27.13931873)
(1954.427881 15.13053118 17.0059992)
(1971.753162 22.68129916 20.13222295)
(1966.627815 25.51986459 -9.138931389)
(1940.023686 19.8818121 -5.762715242)
(1929.595064 4.620690555 -11.73286125)
(1917.761813 -2.531463126 -19.44336841)
(1921.098487 -5.313969286 -40.72998068)
(1925.860728 -4.012380872 -1.249319001)
(1944.572314 16.60429643 12.18799845)
(1930.594801 1.370468297 4.145233439)
(1916.115765 18.00439293 8.492342902)
(1922.743963 18.28037335 19.21650609)
(1915.725677 22.42981004 -2.871761338)
(1896.551376 17.32545321 0.5383267753)
(1913.577667 0.796480803 20.47459141)
(1913.1688 1.144339787 6.926239149)
(1906.232409 1.382890126 -3.716553424)
(1908.933807 -4.47907266 -26.1243317)
(1929.976794 -5.017245971 -7.101151543)
(1936.273015 0.2205671457 -13.55405739)
(1943.935722 -1.963119261 -9.170065366)
(1946.050932 -16.60994069 -7.57368091)
(1939.965842 -17.61567207 0.6084386538)
(1942.864749 -6.014244794 -12.24204415)
(1925.647456 -4.930567528 -8.447335933)
(1920.990677 -1.299653243 -21.78248805)
(1928.769454 15.07105783 -7.802675188)
(1977.623872 14.05621669 12.50378613)
(1965.544458 4.800374046 -0.5459166833)
(1949.563643 17.4658747 -9.011190214)
(1931.973124 16.87503816 -14.25068792)
(1935.452302 5.303323835 -2.325607488)
(1944.893312 1.442303618 14.57899424)
(1933.352212 -2.711214316 22.27658369)
(1926.577868 11.62639547 32.55288166)
(1945.613185 17.67527095 23.60793833)
(1935.362226 12.71175835 3.268961729)
(1920.94332 42.10491567 7.375378136)
(1911.63467 33.19434013 7.14373817)
(1924.930507 20.09652275 4.225242659)
(1930.904349 10.58282011 0.1873680343)
(1934.197988 11.9745574 -23.89329082)
(1944.038878 15.72513478 -6.670865447)
(1955.650525 26.21981122 11.53591596)
(1976.606693 28.31253133 8.971460453)
(1984.600394 31.44246545 -2.646111361)
(1980.084022 32.38488759 9.392497499)
(1949.789138 16.21746976 -40.93613164)
(1958.930784 7.383027175 -22.90621185)
(1956.591941 2.194888525 0.207733983)
(1946.60213 0.4858109024 0.1311252719)
(1947.279264 -12.42449296 -4.517117843)
(1940.032023 -19.85406411 0.9392120215)
(1951.153786 -8.299360102 -0.4761498792)
(1951.102525 -5.879537902 4.705055285)
(1934.862757 9.924075596 11.05890398)
(1942.041108 15.41373635 12.55038658)
(1955.483913 -18.95142112 15.98109757)
(1961.083815 0.647009909 6.470047686)
(1946.208647 5.759487802 9.603417465)
(1948.106211 9.747433602 -8.551005184)
(1945.136484 4.343808122 -2.838491791)
(1946.986308 8.813391845 15.3016526)
(1951.095514 11.62973277 16.26859552)
(1941.792019 14.04978353 9.06399792)
(1948.01921 24.30984705 -1.777399538)
(1945.221488 5.587112246 -12.30657207)
(1937.967141 -13.51121468 24.51812078)
(1941.720176 7.72342259 9.711057253)
(1939.937318 10.64522772 17.24528346)
(1938.873427 13.23611006 11.45276218)
(1953.539263 33.60787714 15.94479358)
(1961.154164 33.55493653 25.53851606)
(1970.564317 26.33888469 12.18792027)
(1981.812243 41.14833957 10.84270502)
(1963.004697 41.51162878 0.8830101087)
(1963.117591 28.75602639 1.8973794)
(1942.900995 24.97592072 -18.98194315)
(1937.678369 28.10680461 -15.37802392)
(1943.125328 24.96557012 -22.65185176)
(1940.913728 17.34304809 -14.56432104)
(1934.741317 13.62502642 -14.16444739)
(1945.244668 -8.034491345 -2.072317037)
(1941.655994 -17.73465304 -6.174190222)
(1933.935902 -17.24357529 4.407413005)
(1932.830499 -6.49056334 9.707051376)
(1930.121931 -3.311453583 13.17869211)
(1961.658721 12.21383753 31.35817414)
(1948.63571 -0.3133399297 28.7977812)
(1959.492882 -9.86756124 29.54927173)
(1966.550213 0.5002739469 -1.025751219)
(1947.485074 1.971934552 -7.713550518)
(1954.490852 6.552677041 0.7356299454)
(1942.84885 3.164571066 -13.14411903)
(1950.68496 8.213428352 -1.239734238)
(1950.598853 3.903712156 -15.90649818)
(1948.251653 10.38672409 -22.76079118)
(1939.191078 6.05352027 -21.65239132)
(1948.861894 6.103456849 -20.27203182)
(1947.239643 8.536361415 -16.54613052)
(1926.061825 22.27731159 -20.1843436)
(1929.064372 -2.581715156 -3.221464957)
(1924.100769 7.203630983 -6.966707456)
(1933.229454 5.121390395 17.67423385)
(1944.422829 3.109848552 34.37658622)
(1967.740575 1.748367527 50.55792768)
(1963.771648 -0.993457636 36.18130153)
(1951.147124 15.58630908 -1.262758399)
(1958.586867 6.465380427 8.552092033)
(1963.640014 -6.71018124 3.021500992)
(1954.579514 -15.95871235 -20.36203419)
(1968.513025 -16.15896734 -30.86136361)
(1980.016126 -30.30719694 -16.80178451)
(1962.556735 -27.62392817 -19.5462226)
(1961.30663 -22.44632282 0.715171313)
(1967.172139 -6.584055506 21.53611396)
(1976.317116 3.707545703 20.70080116)
(1967.492971 -2.823349009 -11.48461505)
(1957.74131 -4.166849166 -11.74416727)
(1957.137791 -14.74739573 -0.3882314758)
(1977.294956 -14.35558079 -5.888998424)
(1965.296635 11.6730938 -16.25756206)
(1953.834678 22.26503093 -5.880271261)
(1943.651036 21.5069179 -1.425771046)
(1932.690135 13.61571581 12.36259641)
(1933.225781 29.06366893 6.86568633)
(1939.877919 20.46640156 9.020585348)
(1959.905362 0.790424312 -4.248026263)
(1949.916639 -13.12875599 -4.040856452)
(1947.974278 4.032407136 -0.7686027801)
(1952.694524 22.9814745 -7.153292076)
(1968.446476 10.92578893 10.97591469)
(1956.46646 -14.07762515 -4.936858778)
(1965.883843 -6.629196831 -12.80888386)
(1959.510468 2.933910634 -2.484494652)
(1959.054229 -22.79385927 -3.523306802)
(1942.439559 -31.07598411 -7.973377137)
(1944.457419 -27.72451472 -3.109648288)
(1959.223221 -21.35150203 -13.77396027)
(1944.744263 4.792750128 -4.498945491)
(1938.659081 16.3271794 -10.01814752)
(1938.07863 20.14232749 7.466006425)
(1965.156198 14.47164461 3.141821391)
(1955.228197 16.36799935 12.6760024)
(1947.606204 16.68275398 31.16421779)
(1960.313606 -3.903171169 37.1902268)
(1953.223006 -1.453329632 11.25516373)
(1956.183493 9.581657123 -4.489657304)
(1954.705619 -4.82256081 9.50505246)
(1953.436468 -1.11490844 -23.07606545)
(1955.396178 -0.5945326729 -13.30424313)
(1954.070732 8.457277143 -18.73970357)
(1960.139759 1.397333576 5.238824138)
(1966.169946 4.282284447 13.91004459)
(1960.302257 12.10201508 18.08544137)
(1953.201797 14.50904816 -3.280939594)
(1952.589949 25.9929347 -17.48853255)
(1957.607961 23.77989012 -17.5551946)
(1948.393448 15.59327808 -17.99587174)
(1948.506757 15.00203436 -23.77862183)
(1960.064712 9.735491391 -1.981218085)
(1956.07292 -3.411812467 8.395775999)
(1949.049237 9.574156958 1.427121942)
(1938.84734 17.10424921 -0.2175467585)
(1937.046171 -3.736314478 -4.18972275)
(1947.936351 13.27626366 -5.906418815)
(1957.565448 13.99712477 -7.86189622)
(1944.626038 5.847446592 -14.27296569)
(1939.871822 9.258368633 0.9771911284)
(1961.112755 1.126748474 18.8529805)
(1965.331925 -3.191448089 24.0979001)
(1968.10779 -0.648710361 18.22484572)
(1960.288341 33.17874663 -10.19861193)
(1955.263072 5.670065349 -4.384821382)
(1944.053822 8.35432093 2.320693455)
(1935.259843 -5.466703326 -4.772551091)
(1944.144847 9.512479798 -14.26622245)
(1953.207735 17.78828057 -11.49664912)
(1950.357954 4.952881095 -4.962616219)
(1970.994952 1.301786863 9.590974031)
(1979.082998 7.802439322 -1.659943743)
(1970.890629 28.41297353 1.524843335)